 Entering Link 1 = C:\G03W\l1.exe PID=      1480.
  
 Copyright (c) 1988,1990,1992,1993,1995,1998,2003,2004,2007, Gaussian, Inc.
                  All Rights Reserved.
  
 This is the Gaussian(R) 03 program.  It is based on the
 the Gaussian(R) 98 system (copyright 1998, Gaussian, Inc.),
 the Gaussian(R) 94 system (copyright 1995, Gaussian, Inc.),
 the Gaussian 92(TM) system (copyright 1992, Gaussian, Inc.),
 the Gaussian 90(TM) system (copyright 1990, Gaussian, Inc.),
 the Gaussian 88(TM) system (copyright 1988, Gaussian, Inc.),
 the Gaussian 86(TM) system (copyright 1986, Carnegie Mellon
 University), and the Gaussian 82(TM) system (copyright 1983,
 Carnegie Mellon University). Gaussian is a federally registered
 trademark of Gaussian, Inc.
  
 This software contains proprietary and confidential information,
 including trade secrets, belonging to Gaussian, Inc.
  
 This software is provided under written license and may be
 used, copied, transmitted, or stored only in accord with that
 written license.
  
 The following legend is applicable only to US Government
 contracts under FAR:
  
                    RESTRICTED RIGHTS LEGEND
  
 Use, reproduction and disclosure by the US Government is
 subject to restrictions as set forth in subparagraphs (a)
 and (c) of the Commercial Computer Software - Restricted
 Rights clause in FAR 52.227-19.
  
 Gaussian, Inc.
 340 Quinnipiac St., Bldg. 40, Wallingford CT 06492
  
  
 ---------------------------------------------------------------
 Warning -- This program may not be used in any manner that
 competes with the business of Gaussian, Inc. or will provide
 assistance to any competitor of Gaussian, Inc.  The licensee
 of this program is prohibited from giving any competitor of
 Gaussian, Inc. access to this program.  By using this program,
 the user acknowledges that Gaussian, Inc. is engaged in the
 business of creating and licensing software in the field of
 computational chemistry and represents and warrants to the
 licensee that it is not a competitor of Gaussian, Inc. and that
 it will not use this program in any manner prohibited above.
 ---------------------------------------------------------------
  

 Cite this work as:
 Gaussian 03, Revision E.01,
 M. J. Frisch, G. W. Trucks, H. B. Schlegel, G. E. Scuseria, 
 M. A. Robb, J. R. Cheeseman, J. A. Montgomery, Jr., T. Vreven, 
 K. N. Kudin, J. C. Burant, J. M. Millam, S. S. Iyengar, J. Tomasi, 
 V. Barone, B. Mennucci, M. Cossi, G. Scalmani, N. Rega, 
 G. A. Petersson, H. Nakatsuji, M. Hada, M. Ehara, K. Toyota, 
 R. Fukuda, J. Hasegawa, M. Ishida, T. Nakajima, Y. Honda, O. Kitao, 
 H. Nakai, M. Klene, X. Li, J. E. Knox, H. P. Hratchian, J. B. Cross, 
 V. Bakken, C. Adamo, J. Jaramillo, R. Gomperts, R. E. Stratmann, 
 O. Yazyev, A. J. Austin, R. Cammi, C. Pomelli, J. W. Ochterski, 
 P. Y. Ayala, K. Morokuma, G. A. Voth, P. Salvador, J. J. Dannenberg, 
 V. G. Zakrzewski, S. Dapprich, A. D. Daniels, M. C. Strain, 
 O. Farkas, D. K. Malick, A. D. Rabuck, K. Raghavachari, 
 J. B. Foresman, J. V. Ortiz, Q. Cui, A. G. Baboul, S. Clifford, 
 J. Cioslowski, B. B. Stefanov, G. Liu, A. Liashenko, P. Piskorz, 
 I. Komaromi, R. L. Martin, D. J. Fox, T. Keith, M. A. Al-Laham, 
 C. Y. Peng, A. Nanayakkara, M. Challacombe, P. M. W. Gill, 
 B. Johnson, W. Chen, M. W. Wong, C. Gonzalez, and J. A. Pople, 
 Gaussian, Inc., Wallingford CT, 2004.
 
 ******************************************
 Gaussian 03:  IA32W-G03RevE.01 11-Sep-2007
                20-May-2009 
 ******************************************
 %chk=benzene.chk
 ---------------------
 # UHF/3-21G opt nosym
 ---------------------
 1/18=20,38=1/1,3;
 2/9=110,15=1,17=6,18=5,40=1/2;
 3/5=5,11=2,16=1,25=1,30=1/1,2,3;
 4/7=2/1;
 5/5=2,38=5/2;
 6/7=2,8=2,9=2,10=2,28=1/1;
 7/30=1/1,2,3,16;
 1/18=20/3(3);
 2/9=110,15=1/2;
 6/7=2,8=2,9=2,10=2,19=2,28=1/1;
 99//99;
 2/9=110,15=1/2;
 3/5=5,11=2,16=1,25=1,30=1/1,2,3;
 4/5=5,7=2,16=3/1;
 5/5=2,38=5/2;
 7/30=1/1,2,3,16;
 1/18=20/3(-5);
 2/9=110,15=1/2;
 6/7=2,8=2,9=2,10=2,19=2,28=1/1;
 99/9=1/99;
 --------
 _Benzene
 --------
 Symbolic Z-matrix:
 Charge =  1 Multiplicity = 2
 H
 C                    1    r2
 C                    2    r3       1    a3
 H                    3    r2       2    a3       1    d4       0
 C                    3    r3       2    a3       1    d5       0
 H                    5    r2       3    a3       2    d5       0
 C                    5    r3       3    a3       2    d4       0
 H                    7    r2       5    a3       3    d5       0
 C                    7    r3       5    a3       3    d4       0
 H                    9    r2       7    a3       5    d5       0
 C                    9    r3       7    a3       5    d4       0
 H                    11   r2       9    a3       7    d5       0
       Variables:
  r2                    1.0947                   
  r3                    1.3911                   
  a3                  120.                       
  d4                  360.                       
  d5                  180.                       
 

 GradGradGradGradGradGradGradGradGradGradGradGradGradGradGradGradGradGrad
 Berny optimization.
 Initialization pass.
                           ----------------------------
                           !    Initial Parameters    !
                           ! (Angstroms and Degrees)  !
 --------------------------                            --------------------------
 ! Name  Definition              Value          Derivative Info.                !
 --------------------------------------------------------------------------------
 ! R1    R(1,2)                  1.0947         estimate D2E/DX2                !
 ! R2    R(2,3)                  1.3911         estimate D2E/DX2                !
 ! R3    R(2,11)                 1.3911         estimate D2E/DX2                !
 ! R4    R(3,4)                  1.0947         estimate D2E/DX2                !
 ! R5    R(3,5)                  1.3911         estimate D2E/DX2                !
 ! R6    R(5,6)                  1.0947         estimate D2E/DX2                !
 ! R7    R(5,7)                  1.3911         estimate D2E/DX2                !
 ! R8    R(7,8)                  1.0947         estimate D2E/DX2                !
 ! R9    R(7,9)                  1.3911         estimate D2E/DX2                !
 ! R10   R(9,10)                 1.0947         estimate D2E/DX2                !
 ! R11   R(9,11)                 1.3911         estimate D2E/DX2                !
 ! R12   R(11,12)                1.0947         estimate D2E/DX2                !
 ! A1    A(1,2,3)              120.0            estimate D2E/DX2                !
 ! A2    A(1,2,11)             120.0            estimate D2E/DX2                !
 ! A3    A(3,2,11)             120.0            estimate D2E/DX2                !
 ! A4    A(2,3,4)              120.0            estimate D2E/DX2                !
 ! A5    A(2,3,5)              120.0            estimate D2E/DX2                !
 ! A6    A(4,3,5)              120.0            estimate D2E/DX2                !
 ! A7    A(3,5,6)              120.0            estimate D2E/DX2                !
 ! A8    A(3,5,7)              120.0            estimate D2E/DX2                !
 ! A9    A(6,5,7)              120.0            estimate D2E/DX2                !
 ! A10   A(5,7,8)              120.0            estimate D2E/DX2                !
 ! A11   A(5,7,9)              120.0            estimate D2E/DX2                !
 ! A12   A(8,7,9)              120.0            estimate D2E/DX2                !
 ! A13   A(7,9,10)             120.0            estimate D2E/DX2                !
 ! A14   A(7,9,11)             120.0            estimate D2E/DX2                !
 ! A15   A(10,9,11)            120.0            estimate D2E/DX2                !
 ! A16   A(2,11,9)             120.0            estimate D2E/DX2                !
 ! A17   A(2,11,12)            120.0            estimate D2E/DX2                !
 ! A18   A(9,11,12)            120.0            estimate D2E/DX2                !
 ! D1    D(1,2,3,4)              0.0            estimate D2E/DX2                !
 ! D2    D(1,2,3,5)            180.0            estimate D2E/DX2                !
 ! D3    D(11,2,3,4)           180.0            estimate D2E/DX2                !
 ! D4    D(11,2,3,5)             0.0            estimate D2E/DX2                !
 ! D5    D(1,2,11,9)           180.0            estimate D2E/DX2                !
 ! D6    D(1,2,11,12)            0.0            estimate D2E/DX2                !
 ! D7    D(3,2,11,9)             0.0            estimate D2E/DX2                !
 ! D8    D(3,2,11,12)          180.0            estimate D2E/DX2                !
 ! D9    D(2,3,5,6)            180.0            estimate D2E/DX2                !
 ! D10   D(2,3,5,7)              0.0            estimate D2E/DX2                !
 ! D11   D(4,3,5,6)              0.0            estimate D2E/DX2                !
 ! D12   D(4,3,5,7)            180.0            estimate D2E/DX2                !
 ! D13   D(3,5,7,8)            180.0            estimate D2E/DX2                !
 ! D14   D(3,5,7,9)              0.0            estimate D2E/DX2                !
 ! D15   D(6,5,7,8)              0.0            estimate D2E/DX2                !
 ! D16   D(6,5,7,9)            180.0            estimate D2E/DX2                !
 ! D17   D(5,7,9,10)           180.0            estimate D2E/DX2                !
 ! D18   D(5,7,9,11)             0.0            estimate D2E/DX2                !
 ! D19   D(8,7,9,10)             0.0            estimate D2E/DX2                !
 ! D20   D(8,7,9,11)           180.0            estimate D2E/DX2                !
 ! D21   D(7,9,11,2)             0.0            estimate D2E/DX2                !
 ! D22   D(7,9,11,12)          180.0            estimate D2E/DX2                !
 ! D23   D(10,9,11,2)          180.0            estimate D2E/DX2                !
 ! D24   D(10,9,11,12)           0.0            estimate D2E/DX2                !
 --------------------------------------------------------------------------------
 Trust Radius=3.00D-01 FncErr=1.00D-07 GrdErr=1.00D-07
 Number of steps in this run=  64 maximum allowed number of steps= 100.
 GradGradGradGradGradGradGradGradGradGradGradGradGradGradGradGradGradGrad

                          Input orientation:                          
 ---------------------------------------------------------------------
 Center     Atomic     Atomic              Coordinates (Angstroms)
 Number     Number      Type              X           Y           Z
 ---------------------------------------------------------------------
    1          1             0        0.000000    0.000000    0.000000
    2          6             0        0.000000    0.000000    1.094700
    3          6             0        1.204728    0.000000    1.790250
    4          1             0        2.152766    0.000000    1.242900
    5          6             0        1.204728    0.000000    3.181350
    6          1             0        2.152766    0.000000    3.728700
    7          6             0        0.000000    0.000000    3.876900
    8          1             0        0.000000    0.000000    4.971600
    9          6             0       -1.204728    0.000000    3.181350
   10          1             0       -2.152766    0.000000    3.728700
   11          6             0       -1.204728    0.000000    1.790250
   12          1             0       -2.152766    0.000000    1.242900
 ---------------------------------------------------------------------
                    Distance matrix (angstroms):
                    1          2          3          4          5
     1  H    0.000000
     2  C    1.094700   0.000000
     3  C    2.157861   1.391100   0.000000
     4  H    2.485800   2.157861   1.094700   0.000000
     5  C    3.401817   2.409456   1.391100   2.157861   0.000000
     6  H    4.305532   3.401817   2.157861   2.485800   1.094700
     7  C    3.876900   2.782200   2.409456   3.401817   1.391100
     8  H    4.971600   3.876900   3.401817   4.305532   2.157861
     9  C    3.401817   2.409456   2.782200   3.876900   2.409456
    10  H    4.305532   3.401817   3.876900   4.971600   3.401817
    11  C    2.157861   1.391100   2.409456   3.401817   2.782200
    12  H    2.485800   2.157861   3.401817   4.305532   3.876900
                    6          7          8          9         10
     6  H    0.000000
     7  C    2.157861   0.000000
     8  H    2.485800   1.094700   0.000000
     9  C    3.401817   1.391100   2.157861   0.000000
    10  H    4.305532   2.157861   2.485800   1.094700   0.000000
    11  C    3.876900   2.409456   3.401817   1.391100   2.157861
    12  H    4.971600   3.401817   4.305532   2.157861   2.485800
                   11         12
    11  C    0.000000
    12  H    1.094700   0.000000
 Symmetry turned off by external request.
 Stoichiometry    C6H6(1+,2)
 Framework group  D6H[3C2'(HC.CH)]
 Deg. of freedom     2
 Full point group                 D6H
 Rotational constants (GHZ):      5.7202965      5.7202965      2.8601482
 Standard basis: 3-21G (6D, 7F)
 Integral buffers will be    262144 words long.
 Raffenetti 2 integral format.
 Two-electron integral symmetry is turned off.
    66 basis functions,   108 primitive gaussians,    66 cartesian basis functions
    21 alpha electrons       20 beta electrons
       nuclear repulsion energy       203.6546548248 Hartrees.
 NAtoms=   12 NActive=   12 NUniq=   12 SFac= 7.50D-01 NAtFMM=   80 NAOKFM=F Big=F
 One-electron integrals computed using PRISM.
 NBasis=    66 RedAO= T  NBF=    66
 NBsUse=    66 1.00D-06 NBFU=    66
 Harris functional with IExCor=  205 diagonalized for initial guess.
 ExpMin= 1.83D-01 ExpMax= 1.72D+02 ExpMxC= 1.72D+02 IAcc=1 IRadAn=         1 AccDes= 1.00D-06
 HarFok:  IExCor= 205 AccDes= 1.00D-06 IRadAn=         1 IDoV=1
 ScaDFX=  1.000000  1.000000  1.000000  1.000000
 <S**2> of initial guess= 0.7500
 Requested convergence on RMS density matrix=1.00D-08 within 128 cycles.
 Requested convergence on MAX density matrix=1.00D-06.
 Requested convergence on             energy=1.00D-06.
 No special actions if energy rises.
 Keep R1 and R2 integrals in memory in canonical form, NReq=     5870826.
 SCF Done:  E(UHF) =  -229.119104661     A.U. after   13 cycles
             Convg  =    0.7833D-08             -V/T =  2.0021
             S**2   =   0.8627
 Annihilation of the first spin contaminant:
 S**2 before annihilation     0.8627,   after     0.7571

 **********************************************************************

            Population analysis using the SCF density.

 **********************************************************************

 Alpha  occ. eigenvalues --  -11.44770 -11.44763 -11.44740 -11.44709 -11.39478
 Alpha  occ. eigenvalues --  -11.39458  -1.41561  -1.28957  -1.24411  -1.06782
 Alpha  occ. eigenvalues --   -1.06144  -0.94754  -0.87101  -0.86024  -0.83806
 Alpha  occ. eigenvalues --   -0.80635  -0.76648  -0.72344  -0.71839  -0.63191
 Alpha  occ. eigenvalues --   -0.55690
 Alpha virt. eigenvalues --   -0.13126  -0.06262   0.05357   0.11487   0.12925
 Alpha virt. eigenvalues --    0.13083   0.15954   0.17847   0.18147   0.27332
 Alpha virt. eigenvalues --    0.28167   0.29347   0.30214   0.58164   0.58457
 Alpha virt. eigenvalues --    0.64996   0.68018   0.70355   0.76538   0.77334
 Alpha virt. eigenvalues --    0.78781   0.82649   0.84715   0.84900   0.85506
 Alpha virt. eigenvalues --    0.89107   0.89842   0.94950   1.04325   1.06681
 Alpha virt. eigenvalues --    1.08913   1.17221   1.18518   1.19098   1.33918
 Alpha virt. eigenvalues --    1.34601   1.35725   1.50602   1.50637   1.52611
 Alpha virt. eigenvalues --    1.54091   1.56814   1.90813   1.92119   2.51550
  Beta  occ. eigenvalues --  -11.43927 -11.43918 -11.43880 -11.43852 -11.40197
  Beta  occ. eigenvalues --  -11.40178  -1.38868  -1.24777  -1.23236  -1.05504
  Beta  occ. eigenvalues --   -1.04370  -0.94255  -0.86404  -0.85253  -0.82701
  Beta  occ. eigenvalues --   -0.80907  -0.72139  -0.71433  -0.68154  -0.57726
  Beta virt. eigenvalues --   -0.25843  -0.04607  -0.01831   0.05676   0.11986
  Beta virt. eigenvalues --    0.13130   0.16886   0.17284   0.17749   0.18528
  Beta virt. eigenvalues --    0.28247   0.28526   0.29951   0.30613   0.58779
  Beta virt. eigenvalues --    0.59553   0.65398   0.68245   0.73450   0.77185
  Beta virt. eigenvalues --    0.77890   0.82835   0.84156   0.85386   0.86036
  Beta virt. eigenvalues --    0.88415   0.89294   0.90211   0.96101   1.04671
  Beta virt. eigenvalues --    1.07155   1.08815   1.17626   1.18696   1.19031
  Beta virt. eigenvalues --    1.34491   1.34682   1.36398   1.50878   1.51276
  Beta virt. eigenvalues --    1.52626   1.56533   1.56553   1.92152   1.92681
  Beta virt. eigenvalues --    2.52227
          Condensed to atoms (all electrons):
              1          2          3          4          5          6
     1  H    0.329878   0.381364  -0.023777  -0.000872   0.001604  -0.000016
     2  C    0.381364   5.238019   0.443732  -0.019539  -0.118020   0.001515
     3  C   -0.023777   0.443732   5.285091   0.371306   0.314524  -0.026106
     4  H   -0.000872  -0.019539   0.371306   0.315451  -0.026106  -0.000672
     5  C    0.001604  -0.118020   0.314524  -0.026106   5.285091   0.371306
     6  H   -0.000016   0.001515  -0.026106  -0.000672   0.371306   0.315451
     7  C   -0.000055   0.014004  -0.118020   0.001515   0.443732  -0.019539
     8  H    0.000000  -0.000055   0.001604  -0.000016  -0.023777  -0.000872
     9  C    0.001604  -0.118020   0.014510  -0.000106  -0.113632   0.001521
    10  H   -0.000016   0.001515  -0.000106   0.000001   0.001521  -0.000015
    11  C   -0.023777   0.443732  -0.113632   0.001521   0.014510  -0.000106
    12  H   -0.000872  -0.019539   0.001521  -0.000015  -0.000106   0.000001
              7          8          9         10         11         12
     1  H   -0.000055   0.000000   0.001604  -0.000016  -0.023777  -0.000872
     2  C    0.014004  -0.000055  -0.118020   0.001515   0.443732  -0.019539
     3  C   -0.118020   0.001604   0.014510  -0.000106  -0.113632   0.001521
     4  H    0.001515  -0.000016  -0.000106   0.000001   0.001521  -0.000015
     5  C    0.443732  -0.023777  -0.113632   0.001521   0.014510  -0.000106
     6  H   -0.019539  -0.000872   0.001521  -0.000015  -0.000106   0.000001
     7  C    5.238019   0.381364   0.443732  -0.019539  -0.118020   0.001515
     8  H    0.381364   0.329878  -0.023777  -0.000872   0.001604  -0.000016
     9  C    0.443732  -0.023777   5.285091   0.371306   0.314524  -0.026106
    10  H   -0.019539  -0.000872   0.371306   0.315451  -0.026106  -0.000672
    11  C   -0.118020   0.001604   0.314524  -0.026106   5.285091   0.371306
    12  H    0.001515  -0.000016  -0.026106  -0.000672   0.371306   0.315451
 Mulliken atomic charges:
              1
     1  H    0.334936
     2  C   -0.248707
     3  C   -0.150646
     4  H    0.357532
     5  C   -0.150646
     6  H    0.357532
     7  C   -0.248707
     8  H    0.334936
     9  C   -0.150646
    10  H    0.357532
    11  C   -0.150646
    12  H    0.357532
 Sum of Mulliken charges=   1.00000
 Atomic charges with hydrogens summed into heavy atoms:
              1
     1  H    0.000000
     2  C    0.086229
     3  C    0.206886
     4  H    0.000000
     5  C    0.206886
     6  H    0.000000
     7  C    0.086229
     8  H    0.000000
     9  C    0.206886
    10  H    0.000000
    11  C    0.206886
    12  H    0.000000
 Sum of Mulliken charges=   1.00000
          Atomic-Atomic Spin Densities.
              1          2          3          4          5          6
     1  H    0.019139   0.007142  -0.001580   0.000013   0.000085   0.000001
     2  C    0.007142  -0.430915  -0.000604   0.001455  -0.009801  -0.000064
     3  C   -0.001580  -0.000604   0.506110  -0.008381   0.018846  -0.001352
     4  H    0.000013   0.001455  -0.008381  -0.026586  -0.001352   0.000013
     5  C    0.000085  -0.009801   0.018846  -0.001352   0.506110  -0.008381
     6  H    0.000001  -0.000064  -0.001352   0.000013  -0.008381  -0.026586
     7  C    0.000016   0.008704  -0.009801  -0.000064  -0.000604   0.001455
     8  H    0.000000   0.000016   0.000085   0.000001  -0.001580   0.000013
     9  C    0.000085  -0.009801  -0.006734  -0.000017  -0.006769  -0.000008
    10  H    0.000001  -0.000064  -0.000017   0.000000  -0.000008   0.000002
    11  C   -0.001580  -0.000604  -0.006769  -0.000008  -0.006734  -0.000017
    12  H    0.000013   0.001455  -0.000008   0.000002  -0.000017   0.000000
              7          8          9         10         11         12
     1  H    0.000016   0.000000   0.000085   0.000001  -0.001580   0.000013
     2  C    0.008704   0.000016  -0.009801  -0.000064  -0.000604   0.001455
     3  C   -0.009801   0.000085  -0.006734  -0.000017  -0.006769  -0.000008
     4  H   -0.000064   0.000001  -0.000017   0.000000  -0.000008   0.000002
     5  C   -0.000604  -0.001580  -0.006769  -0.000008  -0.006734  -0.000017
     6  H    0.001455   0.000013  -0.000008   0.000002  -0.000017   0.000000
     7  C   -0.430915   0.007142  -0.000604   0.001455  -0.009801  -0.000064
     8  H    0.007142   0.019139  -0.001580   0.000013   0.000085   0.000001
     9  C   -0.000604  -0.001580   0.506110  -0.008381   0.018846  -0.001352
    10  H    0.001455   0.000013  -0.008381  -0.026586  -0.001352   0.000013
    11  C   -0.009801   0.000085   0.018846  -0.001352   0.506110  -0.008381
    12  H   -0.000064   0.000001  -0.001352   0.000013  -0.008381  -0.026586
 Mulliken atomic spin densities:
              1
     1  H    0.023335
     2  C   -0.433079
     3  C    0.489796
     4  H   -0.034924
     5  C    0.489796
     6  H   -0.034924
     7  C   -0.433079
     8  H    0.023335
     9  C    0.489796
    10  H   -0.034924
    11  C    0.489796
    12  H   -0.034924
 Sum of Mulliken spin densities=   1.00000
 Electronic spatial extent (au):  <R**2>=  1344.2639
 Charge=     1.0000 electrons
 Dipole moment (field-independent basis, Debye):
    X=     0.0000    Y=     0.0000    Z=    11.9398  Tot=    11.9398
 Quadrupole moment (field-independent basis, Debye-Ang):
   XX=   -18.1488   YY=   -37.4071   ZZ=     6.7323
   XY=     0.0000   XZ=     0.0000   YZ=     0.0000
 Traceless Quadrupole moment (field-independent basis, Debye-Ang):
   XX=    -1.8743   YY=   -21.1325   ZZ=    23.0068
   XY=     0.0000   XZ=     0.0000   YZ=     0.0000
 Octapole moment (field-independent basis, Debye-Ang**2):
  XXX=     0.0000  YYY=     0.0000  ZZZ=   -97.3516  XYY=     0.0000
  XXY=     0.0000  XXZ=   -45.1144  XZZ=     0.0000  YZZ=     0.0000
  YYZ=   -92.9865  XYZ=     0.0000
 Hexadecapole moment (field-independent basis, Debye-Ang**3):
 XXXX=  -194.2636 YYYY=   -38.3549 ZZZZ=  -880.4250 XXXY=     0.0000
 XXXZ=     0.0000 YYYX=     0.0000 YYYZ=     0.0000 ZZZX=     0.0000
 ZZZY=     0.0000 XXYY=   -54.3811 XXZZ=  -177.9674 YYZZ=  -289.8567
 XXYZ=     0.0000 YYXZ=     0.0000 ZZXY=     0.0000
 N-N= 2.036546548248D+02 E-N=-9.303010672211D+02  KE= 2.286483719667D+02
                          Isotropic Fermi Contact Couplings
        Atom                 a.u.       MegaHertz       Gauss      10(-4) cm-1
     1  H(1)               0.00680      30.39541      10.84584      10.13882
     2  C(13)             -0.07786     -87.53020     -31.23295     -29.19693
     3  C(13)              0.07320      82.28573      29.36159      27.44756
     4  H(1)              -0.01068     -47.73350     -17.03250     -15.92218
     5  C(13)              0.07320      82.28573      29.36159      27.44756
     6  H(1)              -0.01068     -47.73350     -17.03250     -15.92218
     7  C(13)             -0.07786     -87.53020     -31.23295     -29.19693
     8  H(1)               0.00680      30.39541      10.84584      10.13882
     9  C(13)              0.07320      82.28573      29.36159      27.44756
    10  H(1)              -0.01068     -47.73350     -17.03250     -15.92218
    11  C(13)              0.07320      82.28573      29.36159      27.44756
    12  H(1)              -0.01068     -47.73350     -17.03250     -15.92218
 --------------------------------------------------------
       Center         ----  Spin Dipole Couplings  ----
                      3XX-RR        3YY-RR        3ZZ-RR
 --------------------------------------------------------
     1   Atom        0.017303     -0.003221     -0.014082
     2   Atom        0.120729     -0.235320      0.114591
     3   Atom       -0.179988      0.367316     -0.187328
     4   Atom        0.012276     -0.008524     -0.003752
     5   Atom       -0.179988      0.367316     -0.187328
     6   Atom        0.012276     -0.008524     -0.003752
     7   Atom        0.120729     -0.235320      0.114591
     8   Atom        0.017303     -0.003221     -0.014082
     9   Atom       -0.179988      0.367316     -0.187328
    10   Atom        0.012276     -0.008524     -0.003752
    11   Atom       -0.179988      0.367316     -0.187328
    12   Atom        0.012276     -0.008524     -0.003752
 --------------------------------------------------------
                        XY            XZ            YZ
 --------------------------------------------------------
     1   Atom        0.000000      0.000000      0.000000
     2   Atom        0.000000      0.000000      0.000000
     3   Atom        0.000000     -0.007176      0.000000
     4   Atom        0.000000     -0.035335      0.000000
     5   Atom        0.000000      0.007176      0.000000
     6   Atom        0.000000      0.035335      0.000000
     7   Atom        0.000000      0.000000      0.000000
     8   Atom        0.000000      0.000000      0.000000
     9   Atom        0.000000     -0.007176      0.000000
    10   Atom        0.000000     -0.035335      0.000000
    11   Atom        0.000000      0.007176      0.000000
    12   Atom        0.000000      0.035335      0.000000
 --------------------------------------------------------


 ---------------------------------------------------------------------------------
              Anisotropic Spin Dipole Couplings in Principal Axis System
 ---------------------------------------------------------------------------------

       Atom             a.u.   MegaHertz   Gauss  10(-4) cm-1        Axes

              Baa    -0.0141    -7.514    -2.681    -2.506  0.0000  0.0000  1.0000
     1 H(1)   Bbb    -0.0032    -1.719    -0.613    -0.573  0.0000  1.0000  0.0000
              Bcc     0.0173     9.232     3.294     3.080  1.0000  0.0000  0.0000
 
              Baa    -0.2353   -31.578   -11.268   -10.533  0.0000  1.0000  0.0000
     2 C(13)  Bbb     0.1146    15.377     5.487     5.129  0.0000  0.0000  1.0000
              Bcc     0.1207    16.201     5.781     5.404  1.0000  0.0000  0.0000
 
              Baa    -0.1917   -25.727    -9.180    -8.582  0.5218  0.0000  0.8530
     3 C(13)  Bbb    -0.1756   -23.564    -8.408    -7.860  0.8530  0.0000 -0.5218
              Bcc     0.3673    49.290    17.588    16.441  0.0000  1.0000  0.0000
 
              Baa    -0.0320   -17.058    -6.087    -5.690  0.6240  0.0000  0.7814
     4 H(1)   Bbb    -0.0085    -4.548    -1.623    -1.517  0.0000  1.0000  0.0000
              Bcc     0.0405    21.606     7.709     7.207  0.7814  0.0000 -0.6240
 
              Baa    -0.1917   -25.727    -9.180    -8.582 -0.5218  0.0000  0.8530
     5 C(13)  Bbb    -0.1756   -23.564    -8.408    -7.860  0.8530  0.0000  0.5218
              Bcc     0.3673    49.290    17.588    16.441  0.0000  1.0000  0.0000
 
              Baa    -0.0320   -17.058    -6.087    -5.690 -0.6240  0.0000  0.7814
     6 H(1)   Bbb    -0.0085    -4.548    -1.623    -1.517  0.0000  1.0000  0.0000
              Bcc     0.0405    21.606     7.709     7.207  0.7814  0.0000  0.6240
 
              Baa    -0.2353   -31.578   -11.268   -10.533  0.0000  1.0000  0.0000
     7 C(13)  Bbb     0.1146    15.377     5.487     5.129  0.0000  0.0000  1.0000
              Bcc     0.1207    16.201     5.781     5.404  1.0000  0.0000  0.0000
 
              Baa    -0.0141    -7.514    -2.681    -2.506  0.0000  0.0000  1.0000
     8 H(1)   Bbb    -0.0032    -1.719    -0.613    -0.573  0.0000  1.0000  0.0000
              Bcc     0.0173     9.232     3.294     3.080  1.0000  0.0000  0.0000
 
              Baa    -0.1917   -25.727    -9.180    -8.582  0.5218  0.0000  0.8530
     9 C(13)  Bbb    -0.1756   -23.564    -8.408    -7.860  0.8530  0.0000 -0.5218
              Bcc     0.3673    49.290    17.588    16.441  0.0000  1.0000  0.0000
 
              Baa    -0.0320   -17.058    -6.087    -5.690  0.6240  0.0000  0.7814
    10 H(1)   Bbb    -0.0085    -4.548    -1.623    -1.517  0.0000  1.0000  0.0000
              Bcc     0.0405    21.606     7.709     7.207  0.7814  0.0000 -0.6240
 
              Baa    -0.1917   -25.727    -9.180    -8.582 -0.5218  0.0000  0.8530
    11 C(13)  Bbb    -0.1756   -23.564    -8.408    -7.860  0.8530  0.0000  0.5218
              Bcc     0.3673    49.290    17.588    16.441  0.0000  1.0000  0.0000
 
              Baa    -0.0320   -17.058    -6.087    -5.690 -0.6240  0.0000  0.7814
    12 H(1)   Bbb    -0.0085    -4.548    -1.623    -1.517  0.0000  1.0000  0.0000
              Bcc     0.0405    21.606     7.709     7.207  0.7814  0.0000  0.6240
 

 ---------------------------------------------------------------------------------

 -------------------------------------------------------------------
 Center     Atomic                   Forces (Hartrees/Bohr)
 Number     Number              X              Y              Z
 -------------------------------------------------------------------
    1          1           0.000000000    0.000000000    0.018261505
    2          6           0.000000000    0.000000000   -0.021688294
    3          6           0.002937254    0.000000000   -0.057195804
    4          1          -0.014476476    0.000000000    0.007880864
    5          6           0.002937254    0.000000000    0.057195804
    6          1          -0.014476476    0.000000000   -0.007880864
    7          6           0.000000000    0.000000000    0.021688294
    8          1           0.000000000    0.000000000   -0.018261505
    9          6          -0.002937254    0.000000000    0.057195804
   10          1           0.014476476    0.000000000   -0.007880864
   11          6          -0.002937254    0.000000000   -0.057195804
   12          1           0.014476476    0.000000000    0.007880864
 -------------------------------------------------------------------
 Cartesian Forces:  Max     0.057195804 RMS     0.020959210

 GradGradGradGradGradGradGradGradGradGradGradGradGradGradGradGradGradGrad
 Berny optimization.
 Internal  Forces:  Max     0.051028335 RMS     0.011867320
 Search for a local minimum.
 Step number   1 out of a maximum of  64
 All quantities printed in internal units (Hartrees-Bohrs-Radians)
 Second derivative matrix not updated -- first step.
     Eigenvalues ---    0.02206   0.02206   0.02206   0.02206   0.02206
     Eigenvalues ---    0.02206   0.02206   0.02206   0.02206   0.16000
     Eigenvalues ---    0.16000   0.16000   0.16000   0.16000   0.16000
     Eigenvalues ---    0.22000   0.22000   0.22000   0.34275   0.34275
     Eigenvalues ---    0.34275   0.34275   0.34275   0.34275   0.42646
     Eigenvalues ---    0.42646   0.47128   0.47128   0.47128   0.47128
     Eigenvalues --- 1000.000001000.000001000.000001000.000001000.00000
     Eigenvalues --- 1000.000001000.000001000.000001000.000001000.00000
     Eigenvalues --- 1000.000001000.000001000.000001000.000001000.00000
     Eigenvalues --- 1000.000001000.000001000.000001000.000001000.00000
     Eigenvalues --- 1000.000001000.000001000.000001000.00000
 RFO step:  Lambda=-1.75120392D-02.
 Linear search not attempted -- first point.
 Iteration  1 RMS(Cart)=  0.03186354 RMS(Int)=  0.00013478
 Iteration  2 RMS(Cart)=  0.00018199 RMS(Int)=  0.00000001
 Iteration  3 RMS(Cart)=  0.00000002 RMS(Int)=  0.00000000
 Variable       Old X    -DE/DX   Delta X   Delta X   Delta X     New X
                                 (Linear)    (Quad)   (Total)
    R1        2.06868  -0.01826   0.00000  -0.05069  -0.05069   2.01799
    R2        2.62880  -0.00914   0.00000  -0.01869  -0.01869   2.61011
    R3        2.62880  -0.00914   0.00000  -0.01869  -0.01869   2.61011
    R4        2.06868  -0.01648   0.00000  -0.04574  -0.04574   2.02295
    R5        2.62880   0.05103   0.00000   0.10440   0.10440   2.73320
    R6        2.06868  -0.01648   0.00000  -0.04574  -0.04574   2.02295
    R7        2.62880  -0.00914   0.00000  -0.01869  -0.01869   2.61011
    R8        2.06868  -0.01826   0.00000  -0.05069  -0.05069   2.01799
    R9        2.62880  -0.00914   0.00000  -0.01869  -0.01869   2.61011
   R10        2.06868  -0.01648   0.00000  -0.04574  -0.04574   2.02295
   R11        2.62880   0.05103   0.00000   0.10440   0.10440   2.73320
   R12        2.06868  -0.01648   0.00000  -0.04574  -0.04574   2.02295
    A1        2.09440   0.00414   0.00000   0.01744   0.01744   2.11184
    A2        2.09440   0.00414   0.00000   0.01744   0.01744   2.11184
    A3        2.09440  -0.00828   0.00000  -0.03488  -0.03488   2.05951
    A4        2.09440  -0.00250   0.00000  -0.01113  -0.01113   2.08327
    A5        2.09440   0.00414   0.00000   0.01744   0.01744   2.11184
    A6        2.09440  -0.00164   0.00000  -0.00631  -0.00631   2.08808
    A7        2.09440  -0.00164   0.00000  -0.00631  -0.00631   2.08808
    A8        2.09440   0.00414   0.00000   0.01744   0.01744   2.11184
    A9        2.09440  -0.00250   0.00000  -0.01113  -0.01113   2.08327
   A10        2.09440   0.00414   0.00000   0.01744   0.01744   2.11184
   A11        2.09440  -0.00828   0.00000  -0.03488  -0.03488   2.05951
   A12        2.09440   0.00414   0.00000   0.01744   0.01744   2.11184
   A13        2.09440  -0.00250   0.00000  -0.01113  -0.01113   2.08327
   A14        2.09440   0.00414   0.00000   0.01744   0.01744   2.11184
   A15        2.09440  -0.00164   0.00000  -0.00631  -0.00631   2.08808
   A16        2.09440   0.00414   0.00000   0.01744   0.01744   2.11184
   A17        2.09440  -0.00250   0.00000  -0.01113  -0.01113   2.08327
   A18        2.09440  -0.00164   0.00000  -0.00631  -0.00631   2.08808
    D1        0.00000   0.00000   0.00000   0.00000   0.00000   0.00000
    D2        3.14159   0.00000   0.00000   0.00000   0.00000   3.14159
    D3        3.14159   0.00000   0.00000   0.00000   0.00000   3.14159
    D4        0.00000   0.00000   0.00000   0.00000   0.00000   0.00000
    D5        3.14159   0.00000   0.00000   0.00000   0.00000   3.14159
    D6        0.00000   0.00000   0.00000   0.00000   0.00000   0.00000
    D7        0.00000   0.00000   0.00000   0.00000   0.00000   0.00000
    D8        3.14159   0.00000   0.00000   0.00000   0.00000   3.14159
    D9        3.14159   0.00000   0.00000   0.00000   0.00000   3.14159
   D10        0.00000   0.00000   0.00000   0.00000   0.00000   0.00000
   D11        0.00000   0.00000   0.00000   0.00000   0.00000   0.00000
   D12        3.14159   0.00000   0.00000   0.00000   0.00000   3.14159
   D13        3.14159   0.00000   0.00000   0.00000   0.00000   3.14159
   D14        0.00000   0.00000   0.00000   0.00000   0.00000   0.00000
   D15        0.00000   0.00000   0.00000   0.00000   0.00000   0.00000
   D16        3.14159   0.00000   0.00000   0.00000   0.00000   3.14159
   D17        3.14159   0.00000   0.00000   0.00000   0.00000   3.14159
   D18        0.00000   0.00000   0.00000   0.00000   0.00000   0.00000
   D19        0.00000   0.00000   0.00000   0.00000   0.00000   0.00000
   D20        3.14159   0.00000   0.00000   0.00000   0.00000   3.14159
   D21        0.00000   0.00000   0.00000   0.00000   0.00000   0.00000
   D22        3.14159   0.00000   0.00000   0.00000   0.00000   3.14159
   D23        3.14159   0.00000   0.00000   0.00000   0.00000   3.14159
   D24        0.00000   0.00000   0.00000   0.00000   0.00000   0.00000
         Item               Value     Threshold  Converged?
 Maximum Force            0.051028     0.000450     NO 
 RMS     Force            0.011867     0.000300     NO 
 Maximum Displacement     0.082075     0.001800     NO 
 RMS     Displacement     0.031886     0.001200     NO 
 Predicted change in Energy=-9.125723D-03
 GradGradGradGradGradGradGradGradGradGradGradGradGradGradGradGradGradGrad

                          Input orientation:                          
 ---------------------------------------------------------------------
 Center     Atomic     Atomic              Coordinates (Angstroms)
 Number     Number      Type              X           Y           Z
 ---------------------------------------------------------------------
    1          1             0        0.000000    0.000000   -0.016608
    2          6             0        0.000000    0.000000    1.051268
    3          6             0        1.183936    0.000000    1.762628
    4          1             0        2.114374    0.000000    1.233242
    5          6             0        1.183936    0.000000    3.208972
    6          1             0        2.114374    0.000000    3.738358
    7          6             0        0.000000    0.000000    3.920332
    8          1             0        0.000000    0.000000    4.988208
    9          6             0       -1.183936    0.000000    3.208972
   10          1             0       -2.114374    0.000000    3.738358
   11          6             0       -1.183936    0.000000    1.762628
   12          1             0       -2.114374    0.000000    1.233242
 ---------------------------------------------------------------------
                    Distance matrix (angstroms):
                    1          2          3          4          5
     1  H    0.000000
     2  C    1.067876   0.000000
     3  C    2.137144   1.381209   0.000000
     4  H    2.456156   2.122190   1.070497   0.000000
     5  C    3.435997   2.461177   1.446345   2.183855   0.000000
     6  H    4.309333   3.419215   2.183855   2.505116   1.070497
     7  C    3.936941   2.869064   2.461177   3.419215   1.381209
     8  H    5.004817   3.936941   3.435997   4.309333   2.137144
     9  C    3.435997   2.461177   2.774658   3.844783   2.367872
    10  H    4.309333   3.419215   3.844783   4.915070   3.340523
    11  C    2.137144   1.381209   2.367872   3.340523   2.774658
    12  H    2.456156   2.122190   3.340523   4.228747   3.844783
                    6          7          8          9         10
     6  H    0.000000
     7  C    2.122190   0.000000
     8  H    2.456156   1.067876   0.000000
     9  C    3.340523   1.381209   2.137144   0.000000
    10  H    4.228747   2.122190   2.456156   1.070497   0.000000
    11  C    3.844783   2.461177   3.435997   1.446345   2.183855
    12  H    4.915070   3.419215   4.309333   2.183855   2.505116
                   11         12
    11  C    0.000000
    12  H    1.070497   0.000000
 Symmetry turned off by external request.
 Stoichiometry    C6H6(1+,2)
 Framework group  D2H[C2"(HC.CH),SG(C4H4)]
 Deg. of freedom     6
 Full point group                 D2H
 Rotational constants (GHZ):      5.9244443      5.4086552      2.8274063
 Standard basis: 3-21G (6D, 7F)
 Integral buffers will be    262144 words long.
 Raffenetti 2 integral format.
 Two-electron integral symmetry is turned off.
    66 basis functions,   108 primitive gaussians,    66 cartesian basis functions
    21 alpha electrons       20 beta electrons
       nuclear repulsion energy       202.9652552521 Hartrees.
 NAtoms=   12 NActive=   12 NUniq=   12 SFac= 7.50D-01 NAtFMM=   80 NAOKFM=F Big=F
 One-electron integrals computed using PRISM.
 NBasis=    66 RedAO= T  NBF=    66
 NBsUse=    66 1.00D-06 NBFU=    66
 Initial guess read from the read-write file:
 <S**2> of initial guess= 0.8621
 Harris functional with IExCor=  205 diagonalized for initial guess.
 ExpMin= 1.83D-01 ExpMax= 1.72D+02 ExpMxC= 1.72D+02 IAcc=1 IRadAn=         1 AccDes= 1.00D-06
 HarFok:  IExCor= 205 AccDes= 1.00D-06 IRadAn=         1 IDoV=1
 ScaDFX=  1.000000  1.000000  1.000000  1.000000
 Requested convergence on RMS density matrix=1.00D-08 within 128 cycles.
 Requested convergence on MAX density matrix=1.00D-06.
 Requested convergence on             energy=1.00D-06.
 No special actions if energy rises.
 Keep R1 and R2 integrals in memory in canonical form, NReq=     5870826.
 SCF Done:  E(UHF) =  -229.127072186     A.U. after   11 cycles
             Convg  =    0.9540D-08             -V/T =  2.0019
             S**2   =   0.8597
 Annihilation of the first spin contaminant:
 S**2 before annihilation     0.8597,   after     0.7568
 -------------------------------------------------------------------
 Center     Atomic                   Forces (Hartrees/Bohr)
 Number     Number              X              Y              Z
 -------------------------------------------------------------------
    1          1           0.000000000    0.000000000   -0.000763251
    2          6           0.000000000    0.000000000    0.007311280
    3          6           0.000652512    0.000000000   -0.004502695
    4          1           0.002375963    0.000000000    0.002281133
    5          6           0.000652512    0.000000000    0.004502695
    6          1           0.002375963    0.000000000   -0.002281133
    7          6           0.000000000    0.000000000   -0.007311280
    8          1           0.000000000    0.000000000    0.000763251
    9          6          -0.000652512    0.000000000    0.004502695
   10          1          -0.002375963    0.000000000   -0.002281133
   11          6          -0.000652512    0.000000000   -0.004502695
   12          1          -0.002375963    0.000000000    0.002281133
 -------------------------------------------------------------------
 Cartesian Forces:  Max     0.007311280 RMS     0.002550980

 GradGradGradGradGradGradGradGradGradGradGradGradGradGradGradGradGradGrad
 Berny optimization.
 Internal  Forces:  Max     0.004105235 RMS     0.001675593
 Search for a local minimum.
 Step number   2 out of a maximum of  64
 All quantities printed in internal units (Hartrees-Bohrs-Radians)
 Update second derivatives using D2CorX and points  1  2
 Trust test= 8.73D-01 RLast= 2.05D-01 DXMaxT set to 4.24D-01
     Eigenvalues ---    0.02206   0.02206   0.02206   0.02206   0.02206
     Eigenvalues ---    0.02206   0.02206   0.02206   0.02206   0.15841
     Eigenvalues ---    0.16000   0.16000   0.16000   0.16000   0.16000
     Eigenvalues ---    0.22000   0.22000   0.23089   0.34271   0.34275
     Eigenvalues ---    0.34275   0.34275   0.34275   0.35551   0.42440
     Eigenvalues ---    0.42960   0.46921   0.47128   0.47128   0.48925
     Eigenvalues --- 1000.000001000.000001000.000001000.000001000.00000
     Eigenvalues --- 1000.000001000.000001000.000001000.000001000.00000
     Eigenvalues --- 1000.000001000.000001000.000001000.000001000.00000
     Eigenvalues --- 1000.000001000.000001000.000001000.000001000.00000
     Eigenvalues --- 1000.000001000.000001000.000001000.00000
 RFO step:  Lambda=-6.31409729D-04.
 Quartic linear search produced a step of -0.06667.
 Iteration  1 RMS(Cart)=  0.01098637 RMS(Int)=  0.00006397
 Iteration  2 RMS(Cart)=  0.00007603 RMS(Int)=  0.00000000
 Iteration  3 RMS(Cart)=  0.00000000 RMS(Int)=  0.00000000
 Variable       Old X    -DE/DX   Delta X   Delta X   Delta X     New X
                                 (Linear)    (Quad)   (Total)
    R1        2.01799   0.00076   0.00338  -0.00310   0.00028   2.01827
    R2        2.61011   0.00091   0.00125  -0.00012   0.00113   2.61123
    R3        2.61011   0.00091   0.00125  -0.00012   0.00113   2.61123
    R4        2.02295   0.00094   0.00305  -0.00212   0.00093   2.02387
    R5        2.73320  -0.00105  -0.00696   0.00863   0.00167   2.73486
    R6        2.02295   0.00094   0.00305  -0.00212   0.00093   2.02387
    R7        2.61011   0.00091   0.00125  -0.00012   0.00113   2.61123
    R8        2.01799   0.00076   0.00338  -0.00310   0.00028   2.01827
    R9        2.61011   0.00091   0.00125  -0.00012   0.00113   2.61123
   R10        2.02295   0.00094   0.00305  -0.00212   0.00093   2.02387
   R11        2.73320  -0.00105  -0.00696   0.00863   0.00167   2.73486
   R12        2.02295   0.00094   0.00305  -0.00212   0.00093   2.02387
    A1        2.11184  -0.00182  -0.00116  -0.00595  -0.00711   2.10472
    A2        2.11184  -0.00182  -0.00116  -0.00595  -0.00711   2.10472
    A3        2.05951   0.00365   0.00233   0.01190   0.01422   2.07374
    A4        2.08327   0.00411   0.00074   0.02129   0.02203   2.10530
    A5        2.11184  -0.00182  -0.00116  -0.00595  -0.00711   2.10472
    A6        2.08808  -0.00228   0.00042  -0.01534  -0.01492   2.07316
    A7        2.08808  -0.00228   0.00042  -0.01534  -0.01492   2.07316
    A8        2.11184  -0.00182  -0.00116  -0.00595  -0.00711   2.10472
    A9        2.08327   0.00411   0.00074   0.02129   0.02203   2.10530
   A10        2.11184  -0.00182  -0.00116  -0.00595  -0.00711   2.10472
   A11        2.05951   0.00365   0.00233   0.01190   0.01422   2.07374
   A12        2.11184  -0.00182  -0.00116  -0.00595  -0.00711   2.10472
   A13        2.08327   0.00411   0.00074   0.02129   0.02203   2.10530
   A14        2.11184  -0.00182  -0.00116  -0.00595  -0.00711   2.10472
   A15        2.08808  -0.00228   0.00042  -0.01534  -0.01492   2.07316
   A16        2.11184  -0.00182  -0.00116  -0.00595  -0.00711   2.10472
   A17        2.08327   0.00411   0.00074   0.02129   0.02203   2.10530
   A18        2.08808  -0.00228   0.00042  -0.01534  -0.01492   2.07316
    D1        0.00000   0.00000   0.00000   0.00000   0.00000   0.00000
    D2        3.14159   0.00000   0.00000   0.00000   0.00000   3.14159
    D3        3.14159   0.00000   0.00000   0.00000   0.00000   3.14159
    D4        0.00000   0.00000   0.00000   0.00000   0.00000   0.00000
    D5        3.14159   0.00000   0.00000   0.00000   0.00000   3.14159
    D6        0.00000   0.00000   0.00000   0.00000   0.00000   0.00000
    D7        0.00000   0.00000   0.00000   0.00000   0.00000   0.00000
    D8        3.14159   0.00000   0.00000   0.00000   0.00000   3.14159
    D9        3.14159   0.00000   0.00000   0.00000   0.00000   3.14159
   D10        0.00000   0.00000   0.00000   0.00000   0.00000   0.00000
   D11        0.00000   0.00000   0.00000   0.00000   0.00000   0.00000
   D12        3.14159   0.00000   0.00000   0.00000   0.00000   3.14159
   D13        3.14159   0.00000   0.00000   0.00000   0.00000   3.14159
   D14        0.00000   0.00000   0.00000   0.00000   0.00000   0.00000
   D15        0.00000   0.00000   0.00000   0.00000   0.00000   0.00000
   D16        3.14159   0.00000   0.00000   0.00000   0.00000   3.14159
   D17        3.14159   0.00000   0.00000   0.00000   0.00000   3.14159
   D18        0.00000   0.00000   0.00000   0.00000   0.00000   0.00000
   D19        0.00000   0.00000   0.00000   0.00000   0.00000   0.00000
   D20        3.14159   0.00000   0.00000   0.00000   0.00000   3.14159
   D21        0.00000   0.00000   0.00000   0.00000   0.00000   0.00000
   D22        3.14159   0.00000   0.00000   0.00000   0.00000   3.14159
   D23        3.14159   0.00000   0.00000   0.00000   0.00000   3.14159
   D24        0.00000   0.00000   0.00000   0.00000   0.00000   0.00000
         Item               Value     Threshold  Converged?
 Maximum Force            0.004105     0.000450     NO 
 RMS     Force            0.001676     0.000300     NO 
 Maximum Displacement     0.026019     0.001800     NO 
 RMS     Displacement     0.010965     0.001200     NO 
 Predicted change in Energy=-3.538399D-04
 GradGradGradGradGradGradGradGradGradGradGradGradGradGradGradGradGradGrad

                          Input orientation:                          
 ---------------------------------------------------------------------
 Center     Atomic     Atomic              Coordinates (Angstroms)
 Number     Number      Type              X           Y           Z
 ---------------------------------------------------------------------
    1          1             0        0.000000    0.000000   -0.009064
    2          6             0        0.000000    0.000000    1.058961
    3          6             0        1.189479    0.000000    1.762186
    4          1             0        2.128143    0.000000    1.246506
    5          6             0        1.189479    0.000000    3.209414
    6          1             0        2.128143    0.000000    3.725094
    7          6             0        0.000000    0.000000    3.912639
    8          1             0        0.000000    0.000000    4.980664
    9          6             0       -1.189479    0.000000    3.209414
   10          1             0       -2.128143    0.000000    3.725094
   11          6             0       -1.189479    0.000000    1.762186
   12          1             0       -2.128143    0.000000    1.246506
 ---------------------------------------------------------------------
                    Distance matrix (angstroms):
                    1          2          3          4          5
     1  H    0.000000
     2  C    1.068025   0.000000
     3  C    2.133585   1.381805   0.000000
     4  H    2.470920   2.136390   1.070988   0.000000
     5  C    3.431248   2.457501   1.447228   2.175798   0.000000
     6  H    4.298014   3.411342   2.175798   2.478589   1.070988
     7  C    3.921703   2.853678   2.457501   3.411342   1.381805
     8  H    4.989727   3.921703   3.431248   4.298014   2.133585
     9  C    3.431248   2.457501   2.784585   3.854818   2.378958
    10  H    4.298014   3.411342   3.854818   4.925380   3.357460
    11  C    2.133585   1.381805   2.378958   3.357460   2.784585
    12  H    2.470920   2.136390   3.357460   4.256285   3.854818
                    6          7          8          9         10
     6  H    0.000000
     7  C    2.136390   0.000000
     8  H    2.470920   1.068025   0.000000
     9  C    3.357460   1.381805   2.133585   0.000000
    10  H    4.256285   2.136390   2.470920   1.070988   0.000000
    11  C    3.854818   2.457501   3.431248   1.447228   2.175798
    12  H    4.925380   3.411342   4.298014   2.175798   2.478589
                   11         12
    11  C    0.000000
    12  H    1.070988   0.000000
 Symmetry turned off by external request.
 Stoichiometry    C6H6(1+,2)
 Framework group  D2H[C2"(HC.CH),SG(C4H4)]
 Deg. of freedom     6
 Full point group                 D2H
 Rotational constants (GHZ):      5.8648372      5.4498835      2.8248757
 Standard basis: 3-21G (6D, 7F)
 Integral buffers will be    262144 words long.
 Raffenetti 2 integral format.
 Two-electron integral symmetry is turned off.
    66 basis functions,   108 primitive gaussians,    66 cartesian basis functions
    21 alpha electrons       20 beta electrons
       nuclear repulsion energy       202.8600312740 Hartrees.
 NAtoms=   12 NActive=   12 NUniq=   12 SFac= 7.50D-01 NAtFMM=   80 NAOKFM=F Big=F
 One-electron integrals computed using PRISM.
 NBasis=    66 RedAO= T  NBF=    66
 NBsUse=    66 1.00D-06 NBFU=    66
 Initial guess read from the read-write file:
 <S**2> of initial guess= 0.8598
 Harris functional with IExCor=  205 diagonalized for initial guess.
 ExpMin= 1.83D-01 ExpMax= 1.72D+02 ExpMxC= 1.72D+02 IAcc=1 IRadAn=         1 AccDes= 1.00D-06
 HarFok:  IExCor= 205 AccDes= 1.00D-06 IRadAn=         1 IDoV=1
 ScaDFX=  1.000000  1.000000  1.000000  1.000000
 Requested convergence on RMS density matrix=1.00D-08 within 128 cycles.
 Requested convergence on MAX density matrix=1.00D-06.
 Requested convergence on             energy=1.00D-06.
 No special actions if energy rises.
 Keep R1 and R2 integrals in memory in canonical form, NReq=     5870826.
 SCF Done:  E(UHF) =  -229.127413774     A.U. after   10 cycles
             Convg  =    0.8228D-08             -V/T =  2.0020
             S**2   =   0.8605
 Annihilation of the first spin contaminant:
 S**2 before annihilation     0.8605,   after     0.7568
 -------------------------------------------------------------------
 Center     Atomic                   Forces (Hartrees/Bohr)
 Number     Number              X              Y              Z
 -------------------------------------------------------------------
    1          1           0.000000000    0.000000000   -0.000998630
    2          6           0.000000000    0.000000000    0.001327492
    3          6          -0.001445870    0.000000000   -0.000561228
    4          1           0.000345688    0.000000000   -0.000122151
    5          6          -0.001445870    0.000000000    0.000561228
    6          1           0.000345688    0.000000000    0.000122151
    7          6           0.000000000    0.000000000   -0.001327492
    8          1           0.000000000    0.000000000    0.000998630
    9          6           0.001445870    0.000000000    0.000561228
   10          1          -0.000345688    0.000000000    0.000122151
   11          6           0.001445870    0.000000000   -0.000561228
   12          1          -0.000345688    0.000000000   -0.000122151
 -------------------------------------------------------------------
 Cartesian Forces:  Max     0.001445870 RMS     0.000659940

 GradGradGradGradGradGradGradGradGradGradGradGradGradGradGradGradGradGrad
 Berny optimization.
 Internal  Forces:  Max     0.001030735 RMS     0.000397119
 Search for a local minimum.
 Step number   3 out of a maximum of  64
 All quantities printed in internal units (Hartrees-Bohrs-Radians)
 Update second derivatives using D2CorX and points  1  2  3
 Trust test= 9.65D-01 RLast= 6.05D-02 DXMaxT set to 4.24D-01
     Eigenvalues ---    0.02206   0.02206   0.02206   0.02206   0.02206
     Eigenvalues ---    0.02206   0.02206   0.02206   0.02206   0.14760
     Eigenvalues ---    0.16000   0.16000   0.16000   0.16000   0.16000
     Eigenvalues ---    0.22000   0.22000   0.24655   0.34275   0.34275
     Eigenvalues ---    0.34275   0.34275   0.34440   0.35229   0.42507
     Eigenvalues ---    0.42907   0.47128   0.47128   0.47419   0.50519
     Eigenvalues --- 1000.000001000.000001000.000001000.000001000.00000
     Eigenvalues --- 1000.000001000.000001000.000001000.000001000.00000
     Eigenvalues --- 1000.000001000.000001000.000001000.000001000.00000
     Eigenvalues --- 1000.000001000.000001000.000001000.000001000.00000
     Eigenvalues --- 1000.000001000.000001000.000001000.00000
 RFO step:  Lambda=-2.05686936D-05.
 Quartic linear search produced a step of -0.03416.
 Iteration  1 RMS(Cart)=  0.00127398 RMS(Int)=  0.00000087
 Iteration  2 RMS(Cart)=  0.00000091 RMS(Int)=  0.00000000
 Variable       Old X    -DE/DX   Delta X   Delta X   Delta X     New X
                                 (Linear)    (Quad)   (Total)
    R1        2.01827   0.00100  -0.00001   0.00285   0.00284   2.02111
    R2        2.61123  -0.00103  -0.00004  -0.00204  -0.00208   2.60916
    R3        2.61123  -0.00103  -0.00004  -0.00204  -0.00208   2.60916
    R4        2.02387   0.00036  -0.00003   0.00109   0.00106   2.02493
    R5        2.73486   0.00052  -0.00006   0.00118   0.00112   2.73599
    R6        2.02387   0.00036  -0.00003   0.00109   0.00106   2.02493
    R7        2.61123  -0.00103  -0.00004  -0.00204  -0.00208   2.60916
    R8        2.01827   0.00100  -0.00001   0.00285   0.00284   2.02111
    R9        2.61123  -0.00103  -0.00004  -0.00204  -0.00208   2.60916
   R10        2.02387   0.00036  -0.00003   0.00109   0.00106   2.02493
   R11        2.73486   0.00052  -0.00006   0.00118   0.00112   2.73599
   R12        2.02387   0.00036  -0.00003   0.00109   0.00106   2.02493
    A1        2.10472   0.00026   0.00024   0.00062   0.00087   2.10559
    A2        2.10472   0.00026   0.00024   0.00062   0.00087   2.10559
    A3        2.07374  -0.00051  -0.00049  -0.00125  -0.00174   2.07200
    A4        2.10530  -0.00007  -0.00075   0.00135   0.00060   2.10590
    A5        2.10472   0.00026   0.00024   0.00062   0.00087   2.10559
    A6        2.07316  -0.00019   0.00051  -0.00198  -0.00147   2.07169
    A7        2.07316  -0.00019   0.00051  -0.00198  -0.00147   2.07169
    A8        2.10472   0.00026   0.00024   0.00062   0.00087   2.10559
    A9        2.10530  -0.00007  -0.00075   0.00135   0.00060   2.10590
   A10        2.10472   0.00026   0.00024   0.00062   0.00087   2.10559
   A11        2.07374  -0.00051  -0.00049  -0.00125  -0.00174   2.07200
   A12        2.10472   0.00026   0.00024   0.00062   0.00087   2.10559
   A13        2.10530  -0.00007  -0.00075   0.00135   0.00060   2.10590
   A14        2.10472   0.00026   0.00024   0.00062   0.00087   2.10559
   A15        2.07316  -0.00019   0.00051  -0.00198  -0.00147   2.07169
   A16        2.10472   0.00026   0.00024   0.00062   0.00087   2.10559
   A17        2.10530  -0.00007  -0.00075   0.00135   0.00060   2.10590
   A18        2.07316  -0.00019   0.00051  -0.00198  -0.00147   2.07169
    D1        0.00000   0.00000   0.00000   0.00000   0.00000   0.00000
    D2        3.14159   0.00000   0.00000   0.00000   0.00000   3.14159
    D3        3.14159   0.00000   0.00000   0.00000   0.00000   3.14159
    D4        0.00000   0.00000   0.00000   0.00000   0.00000   0.00000
    D5        3.14159   0.00000   0.00000   0.00000   0.00000   3.14159
    D6        0.00000   0.00000   0.00000   0.00000   0.00000   0.00000
    D7        0.00000   0.00000   0.00000   0.00000   0.00000   0.00000
    D8        3.14159   0.00000   0.00000   0.00000   0.00000   3.14159
    D9        3.14159   0.00000   0.00000   0.00000   0.00000   3.14159
   D10        0.00000   0.00000   0.00000   0.00000   0.00000   0.00000
   D11        0.00000   0.00000   0.00000   0.00000   0.00000   0.00000
   D12        3.14159   0.00000   0.00000   0.00000   0.00000   3.14159
   D13        3.14159   0.00000   0.00000   0.00000   0.00000   3.14159
   D14        0.00000   0.00000   0.00000   0.00000   0.00000   0.00000
   D15        0.00000   0.00000   0.00000   0.00000   0.00000   0.00000
   D16        3.14159   0.00000   0.00000   0.00000   0.00000   3.14159
   D17        3.14159   0.00000   0.00000   0.00000   0.00000   3.14159
   D18        0.00000   0.00000   0.00000   0.00000   0.00000   0.00000
   D19        0.00000   0.00000   0.00000   0.00000   0.00000   0.00000
   D20        3.14159   0.00000   0.00000   0.00000   0.00000   3.14159
   D21        0.00000   0.00000   0.00000   0.00000   0.00000   0.00000
   D22        3.14159   0.00000   0.00000   0.00000   0.00000   3.14159
   D23        3.14159   0.00000   0.00000   0.00000   0.00000   3.14159
   D24        0.00000   0.00000   0.00000   0.00000   0.00000   0.00000
         Item               Value     Threshold  Converged?
 Maximum Force            0.001031     0.000450     NO 
 RMS     Force            0.000397     0.000300     NO 
 Maximum Displacement     0.004290     0.001800     NO 
 RMS     Displacement     0.001274     0.001200     NO 
 Predicted change in Energy=-1.071521D-05
 GradGradGradGradGradGradGradGradGradGradGradGradGradGradGradGradGradGrad

                          Input orientation:                          
 ---------------------------------------------------------------------
 Center     Atomic     Atomic              Coordinates (Angstroms)
 Number     Number      Type              X           Y           Z
 ---------------------------------------------------------------------
    1          1             0        0.000000    0.000000   -0.011334
    2          6             0        0.000000    0.000000    1.058193
    3          6             0        1.187923    0.000000    1.761890
    4          1             0        2.127834    0.000000    1.247317
    5          6             0        1.187923    0.000000    3.209710
    6          1             0        2.127834    0.000000    3.724283
    7          6             0        0.000000    0.000000    3.913407
    8          1             0        0.000000    0.000000    4.982934
    9          6             0       -1.187923    0.000000    3.209710
   10          1             0       -2.127834    0.000000    3.724283
   11          6             0       -1.187923    0.000000    1.761890
   12          1             0       -2.127834    0.000000    1.247317
 ---------------------------------------------------------------------
                    Distance matrix (angstroms):
                    1          2          3          4          5
     1  H    0.000000
     2  C    1.069527   0.000000
     3  C    2.134357   1.380706   0.000000
     4  H    2.472222   2.136222   1.071549   0.000000
     5  C    3.433116   2.457679   1.447821   2.175872   0.000000
     6  H    4.299129   3.411116   2.175872   2.476965   1.071549
     7  C    3.924741   2.855214   2.457679   3.411116   1.380706
     8  H    4.994267   3.924741   3.433116   4.299129   2.134357
     9  C    3.433116   2.457679   2.782234   3.852951   2.375845
    10  H    4.299129   3.411116   3.852951   4.924030   3.355448
    11  C    2.134357   1.380706   2.375845   3.355448   2.782234
    12  H    2.472222   2.136222   3.355448   4.255668   3.852951
                    6          7          8          9         10
     6  H    0.000000
     7  C    2.136222   0.000000
     8  H    2.472222   1.069527   0.000000
     9  C    3.355448   1.380706   2.134357   0.000000
    10  H    4.255668   2.136222   2.472222   1.071549   0.000000
    11  C    3.852951   2.457679   3.433116   1.447821   2.175872
    12  H    4.924030   3.411116   4.299129   2.175872   2.476965
                   11         12
    11  C    0.000000
    12  H    1.071549   0.000000
 Symmetry turned off by external request.
 Stoichiometry    C6H6(1+,2)
 Framework group  D2H[C2"(HC.CH),SG(C4H4)]
 Deg. of freedom     6
 Full point group                 D2H
 Rotational constants (GHZ):      5.8773113      5.4447196      2.8263756
 Standard basis: 3-21G (6D, 7F)
 Integral buffers will be    262144 words long.
 Raffenetti 2 integral format.
 Two-electron integral symmetry is turned off.
    66 basis functions,   108 primitive gaussians,    66 cartesian basis functions
    21 alpha electrons       20 beta electrons
       nuclear repulsion energy       202.9039403459 Hartrees.
 NAtoms=   12 NActive=   12 NUniq=   12 SFac= 7.50D-01 NAtFMM=   80 NAOKFM=F Big=F
 One-electron integrals computed using PRISM.
 NBasis=    66 RedAO= T  NBF=    66
 NBsUse=    66 1.00D-06 NBFU=    66
 Initial guess read from the read-write file:
 <S**2> of initial guess= 0.8603
 Requested convergence on RMS density matrix=1.00D-08 within 128 cycles.
 Requested convergence on MAX density matrix=1.00D-06.
 Requested convergence on             energy=1.00D-06.
 No special actions if energy rises.
 Keep R1 and R2 integrals in memory in canonical form, NReq=     5870826.
 SCF Done:  E(UHF) =  -229.127423656     A.U. after   10 cycles
             Convg  =    0.2574D-08             -V/T =  2.0020
             S**2   =   0.8598
 Annihilation of the first spin contaminant:
 S**2 before annihilation     0.8598,   after     0.7568
 -------------------------------------------------------------------
 Center     Atomic                   Forces (Hartrees/Bohr)
 Number     Number              X              Y              Z
 -------------------------------------------------------------------
    1          1           0.000000000    0.000000000    0.000176204
    2          6           0.000000000    0.000000000   -0.000343095
    3          6           0.000134059    0.000000000   -0.000050056
    4          1          -0.000043436    0.000000000    0.000034900
    5          6           0.000134059    0.000000000    0.000050056
    6          1          -0.000043436    0.000000000   -0.000034900
    7          6           0.000000000    0.000000000    0.000343095
    8          1           0.000000000    0.000000000   -0.000176204
    9          6          -0.000134059    0.000000000    0.000050056
   10          1           0.000043436    0.000000000   -0.000034900
   11          6          -0.000134059    0.000000000   -0.000050056
   12          1           0.000043436    0.000000000    0.000034900
 -------------------------------------------------------------------
 Cartesian Forces:  Max     0.000343095 RMS     0.000104330

 GradGradGradGradGradGradGradGradGradGradGradGradGradGradGradGradGradGrad
 Berny optimization.
 Internal  Forces:  Max     0.000176204 RMS     0.000054035
 Search for a local minimum.
 Step number   4 out of a maximum of  64
 All quantities printed in internal units (Hartrees-Bohrs-Radians)
 Update second derivatives using D2CorX and points  1  2  3  4
 Trust test= 9.22D-01 RLast= 7.90D-03 DXMaxT set to 4.24D-01
     Eigenvalues ---    0.02206   0.02206   0.02206   0.02206   0.02206
     Eigenvalues ---    0.02206   0.02206   0.02206   0.02206   0.14309
     Eigenvalues ---    0.16000   0.16000   0.16000   0.16000   0.16000
     Eigenvalues ---    0.22000   0.22000   0.24367   0.34275   0.34275
     Eigenvalues ---    0.34275   0.34275   0.34480   0.37470   0.42493
     Eigenvalues ---    0.42914   0.47128   0.47128   0.47822   0.53236
     Eigenvalues --- 1000.000001000.000001000.000001000.000001000.00000
     Eigenvalues --- 1000.000001000.000001000.000001000.000001000.00000
     Eigenvalues --- 1000.000001000.000001000.000001000.000001000.00000
     Eigenvalues --- 1000.000001000.000001000.000001000.000001000.00000
     Eigenvalues --- 1000.000001000.000001000.000001000.00000
 RFO step:  Lambda=-2.28960758D-07.
 Quartic linear search produced a step of -0.07210.
 Iteration  1 RMS(Cart)=  0.00009506 RMS(Int)=  0.00000001
 Iteration  2 RMS(Cart)=  0.00000001 RMS(Int)=  0.00000000
 Variable       Old X    -DE/DX   Delta X   Delta X   Delta X     New X
                                 (Linear)    (Quad)   (Total)
    R1        2.02111  -0.00018  -0.00020  -0.00022  -0.00043   2.02068
    R2        2.60916   0.00012   0.00015   0.00006   0.00021   2.60937
    R3        2.60916   0.00012   0.00015   0.00006   0.00021   2.60937
    R4        2.02493  -0.00005  -0.00008  -0.00005  -0.00013   2.02481
    R5        2.73599   0.00010  -0.00008   0.00027   0.00019   2.73618
    R6        2.02493  -0.00005  -0.00008  -0.00005  -0.00013   2.02481
    R7        2.60916   0.00012   0.00015   0.00006   0.00021   2.60937
    R8        2.02111  -0.00018  -0.00020  -0.00022  -0.00043   2.02068
    R9        2.60916   0.00012   0.00015   0.00006   0.00021   2.60937
   R10        2.02493  -0.00005  -0.00008  -0.00005  -0.00013   2.02481
   R11        2.73599   0.00010  -0.00008   0.00027   0.00019   2.73618
   R12        2.02493  -0.00005  -0.00008  -0.00005  -0.00013   2.02481
    A1        2.10559   0.00002  -0.00006   0.00014   0.00008   2.10567
    A2        2.10559   0.00002  -0.00006   0.00014   0.00008   2.10567
    A3        2.07200  -0.00003   0.00013  -0.00028  -0.00016   2.07185
    A4        2.10590   0.00000  -0.00004   0.00008   0.00003   2.10593
    A5        2.10559   0.00002  -0.00006   0.00014   0.00008   2.10567
    A6        2.07169  -0.00002   0.00011  -0.00022  -0.00011   2.07158
    A7        2.07169  -0.00002   0.00011  -0.00022  -0.00011   2.07158
    A8        2.10559   0.00002  -0.00006   0.00014   0.00008   2.10567
    A9        2.10590   0.00000  -0.00004   0.00008   0.00003   2.10593
   A10        2.10559   0.00002  -0.00006   0.00014   0.00008   2.10567
   A11        2.07200  -0.00003   0.00013  -0.00028  -0.00016   2.07185
   A12        2.10559   0.00002  -0.00006   0.00014   0.00008   2.10567
   A13        2.10590   0.00000  -0.00004   0.00008   0.00003   2.10593
   A14        2.10559   0.00002  -0.00006   0.00014   0.00008   2.10567
   A15        2.07169  -0.00002   0.00011  -0.00022  -0.00011   2.07158
   A16        2.10559   0.00002  -0.00006   0.00014   0.00008   2.10567
   A17        2.10590   0.00000  -0.00004   0.00008   0.00003   2.10593
   A18        2.07169  -0.00002   0.00011  -0.00022  -0.00011   2.07158
    D1        0.00000   0.00000   0.00000   0.00000   0.00000   0.00000
    D2        3.14159   0.00000   0.00000   0.00000   0.00000   3.14159
    D3        3.14159   0.00000   0.00000   0.00000   0.00000   3.14159
    D4        0.00000   0.00000   0.00000   0.00000   0.00000   0.00000
    D5        3.14159   0.00000   0.00000   0.00000   0.00000   3.14159
    D6        0.00000   0.00000   0.00000   0.00000   0.00000   0.00000
    D7        0.00000   0.00000   0.00000   0.00000   0.00000   0.00000
    D8        3.14159   0.00000   0.00000   0.00000   0.00000   3.14159
    D9        3.14159   0.00000   0.00000   0.00000   0.00000   3.14159
   D10        0.00000   0.00000   0.00000   0.00000   0.00000   0.00000
   D11        0.00000   0.00000   0.00000   0.00000   0.00000   0.00000
   D12        3.14159   0.00000   0.00000   0.00000   0.00000   3.14159
   D13        3.14159   0.00000   0.00000   0.00000   0.00000   3.14159
   D14        0.00000   0.00000   0.00000   0.00000   0.00000   0.00000
   D15        0.00000   0.00000   0.00000   0.00000   0.00000   0.00000
   D16        3.14159   0.00000   0.00000   0.00000   0.00000   3.14159
   D17        3.14159   0.00000   0.00000   0.00000   0.00000   3.14159
   D18        0.00000   0.00000   0.00000   0.00000   0.00000   0.00000
   D19        0.00000   0.00000   0.00000   0.00000   0.00000   0.00000
   D20        3.14159   0.00000   0.00000   0.00000   0.00000   3.14159
   D21        0.00000   0.00000   0.00000   0.00000   0.00000   0.00000
   D22        3.14159   0.00000   0.00000   0.00000   0.00000   3.14159
   D23        3.14159   0.00000   0.00000   0.00000   0.00000   3.14159
   D24        0.00000   0.00000   0.00000   0.00000   0.00000   0.00000
         Item               Value     Threshold  Converged?
 Maximum Force            0.000176     0.000450     YES
 RMS     Force            0.000054     0.000300     YES
 Maximum Displacement     0.000381     0.001800     YES
 RMS     Displacement     0.000095     0.001200     YES
 Predicted change in Energy=-1.745189D-07
 Optimization completed.
    -- Stationary point found.
                           ----------------------------
                           !   Optimized Parameters   !
                           ! (Angstroms and Degrees)  !
 --------------------------                            --------------------------
 ! Name  Definition              Value          Derivative Info.                !
 --------------------------------------------------------------------------------
 ! R1    R(1,2)                  1.0695         -DE/DX =   -0.0002              !
 ! R2    R(2,3)                  1.3807         -DE/DX =    0.0001              !
 ! R3    R(2,11)                 1.3807         -DE/DX =    0.0001              !
 ! R4    R(3,4)                  1.0715         -DE/DX =   -0.0001              !
 ! R5    R(3,5)                  1.4478         -DE/DX =    0.0001              !
 ! R6    R(5,6)                  1.0715         -DE/DX =   -0.0001              !
 ! R7    R(5,7)                  1.3807         -DE/DX =    0.0001              !
 ! R8    R(7,8)                  1.0695         -DE/DX =   -0.0002              !
 ! R9    R(7,9)                  1.3807         -DE/DX =    0.0001              !
 ! R10   R(9,10)                 1.0715         -DE/DX =   -0.0001              !
 ! R11   R(9,11)                 1.4478         -DE/DX =    0.0001              !
 ! R12   R(11,12)                1.0715         -DE/DX =   -0.0001              !
 ! A1    A(1,2,3)              120.6415         -DE/DX =    0.0                 !
 ! A2    A(1,2,11)             120.6415         -DE/DX =    0.0                 !
 ! A3    A(3,2,11)             118.7171         -DE/DX =    0.0                 !
 ! A4    A(2,3,4)              120.6592         -DE/DX =    0.0                 !
 ! A5    A(2,3,5)              120.6415         -DE/DX =    0.0                 !
 ! A6    A(4,3,5)              118.6993         -DE/DX =    0.0                 !
 ! A7    A(3,5,6)              118.6993         -DE/DX =    0.0                 !
 ! A8    A(3,5,7)              120.6415         -DE/DX =    0.0                 !
 ! A9    A(6,5,7)              120.6592         -DE/DX =    0.0                 !
 ! A10   A(5,7,8)              120.6415         -DE/DX =    0.0                 !
 ! A11   A(5,7,9)              118.7171         -DE/DX =    0.0                 !
 ! A12   A(8,7,9)              120.6415         -DE/DX =    0.0                 !
 ! A13   A(7,9,10)             120.6592         -DE/DX =    0.0                 !
 ! A14   A(7,9,11)             120.6415         -DE/DX =    0.0                 !
 ! A15   A(10,9,11)            118.6993         -DE/DX =    0.0                 !
 ! A16   A(2,11,9)             120.6415         -DE/DX =    0.0                 !
 ! A17   A(2,11,12)            120.6592         -DE/DX =    0.0                 !
 ! A18   A(9,11,12)            118.6993         -DE/DX =    0.0                 !
 ! D1    D(1,2,3,4)              0.0            -DE/DX =    0.0                 !
 ! D2    D(1,2,3,5)            180.0            -DE/DX =    0.0                 !
 ! D3    D(11,2,3,4)           180.0            -DE/DX =    0.0                 !
 ! D4    D(11,2,3,5)             0.0            -DE/DX =    0.0                 !
 ! D5    D(1,2,11,9)           180.0            -DE/DX =    0.0                 !
 ! D6    D(1,2,11,12)            0.0            -DE/DX =    0.0                 !
 ! D7    D(3,2,11,9)             0.0            -DE/DX =    0.0                 !
 ! D8    D(3,2,11,12)          180.0            -DE/DX =    0.0                 !
 ! D9    D(2,3,5,6)            180.0            -DE/DX =    0.0                 !
 ! D10   D(2,3,5,7)              0.0            -DE/DX =    0.0                 !
 ! D11   D(4,3,5,6)              0.0            -DE/DX =    0.0                 !
 ! D12   D(4,3,5,7)            180.0            -DE/DX =    0.0                 !
 ! D13   D(3,5,7,8)            180.0            -DE/DX =    0.0                 !
 ! D14   D(3,5,7,9)              0.0            -DE/DX =    0.0                 !
 ! D15   D(6,5,7,8)              0.0            -DE/DX =    0.0                 !
 ! D16   D(6,5,7,9)            180.0            -DE/DX =    0.0                 !
 ! D17   D(5,7,9,10)           180.0            -DE/DX =    0.0                 !
 ! D18   D(5,7,9,11)             0.0            -DE/DX =    0.0                 !
 ! D19   D(8,7,9,10)             0.0            -DE/DX =    0.0                 !
 ! D20   D(8,7,9,11)           180.0            -DE/DX =    0.0                 !
 ! D21   D(7,9,11,2)             0.0            -DE/DX =    0.0                 !
 ! D22   D(7,9,11,12)          180.0            -DE/DX =    0.0                 !
 ! D23   D(10,9,11,2)          180.0            -DE/DX =    0.0                 !
 ! D24   D(10,9,11,12)           0.0            -DE/DX =    0.0                 !
 --------------------------------------------------------------------------------
 GradGradGradGradGradGradGradGradGradGradGradGradGradGradGradGradGradGrad

                          Input orientation:                          
 ---------------------------------------------------------------------
 Center     Atomic     Atomic              Coordinates (Angstroms)
 Number     Number      Type              X           Y           Z
 ---------------------------------------------------------------------
    1          1             0        0.000000    0.000000   -0.011334
    2          6             0        0.000000    0.000000    1.058193
    3          6             0        1.187923    0.000000    1.761890
    4          1             0        2.127834    0.000000    1.247317
    5          6             0        1.187923    0.000000    3.209710
    6          1             0        2.127834    0.000000    3.724283
    7          6             0        0.000000    0.000000    3.913407
    8          1             0        0.000000    0.000000    4.982934
    9          6             0       -1.187923    0.000000    3.209710
   10          1             0       -2.127834    0.000000    3.724283
   11          6             0       -1.187923    0.000000    1.761890
   12          1             0       -2.127834    0.000000    1.247317
 ---------------------------------------------------------------------
                    Distance matrix (angstroms):
                    1          2          3          4          5
     1  H    0.000000
     2  C    1.069527   0.000000
     3  C    2.134357   1.380706   0.000000
     4  H    2.472222   2.136222   1.071549   0.000000
     5  C    3.433116   2.457679   1.447821   2.175872   0.000000
     6  H    4.299129   3.411116   2.175872   2.476965   1.071549
     7  C    3.924741   2.855214   2.457679   3.411116   1.380706
     8  H    4.994267   3.924741   3.433116   4.299129   2.134357
     9  C    3.433116   2.457679   2.782234   3.852951   2.375845
    10  H    4.299129   3.411116   3.852951   4.924030   3.355448
    11  C    2.134357   1.380706   2.375845   3.355448   2.782234
    12  H    2.472222   2.136222   3.355448   4.255668   3.852951
                    6          7          8          9         10
     6  H    0.000000
     7  C    2.136222   0.000000
     8  H    2.472222   1.069527   0.000000
     9  C    3.355448   1.380706   2.134357   0.000000
    10  H    4.255668   2.136222   2.472222   1.071549   0.000000
    11  C    3.852951   2.457679   3.433116   1.447821   2.175872
    12  H    4.924030   3.411116   4.299129   2.175872   2.476965
                   11         12
    11  C    0.000000
    12  H    1.071549   0.000000
 Symmetry turned off by external request.
 Stoichiometry    C6H6(1+,2)
 Framework group  D2H[C2"(HC.CH),SG(C4H4)]
 Deg. of freedom     6
 Full point group                 D2H
 Rotational constants (GHZ):      5.8773113      5.4447196      2.8263756

 **********************************************************************

            Population analysis using the SCF density.

 **********************************************************************

 Alpha  occ. eigenvalues --  -11.44872 -11.44867 -11.44839 -11.44805 -11.39193
 Alpha  occ. eigenvalues --  -11.39175  -1.40581  -1.27105  -1.25661  -1.07738
 Alpha  occ. eigenvalues --   -1.05558  -0.95077  -0.87408  -0.86490  -0.82867
 Alpha  occ. eigenvalues --   -0.82346  -0.75886  -0.73477  -0.71774  -0.61572
 Alpha  occ. eigenvalues --   -0.56760
 Alpha virt. eigenvalues --   -0.14270  -0.05734   0.06299   0.12399   0.12737
 Alpha virt. eigenvalues --    0.13500   0.15369   0.18285   0.18392   0.25750
 Alpha virt. eigenvalues --    0.27380   0.29162   0.30225   0.56739   0.56948
 Alpha virt. eigenvalues --    0.66014   0.66704   0.70554   0.75124   0.78625
 Alpha virt. eigenvalues --    0.79353   0.82303   0.83569   0.84627   0.86834
 Alpha virt. eigenvalues --    0.89193   0.90550   0.94895   1.05620   1.07972
 Alpha virt. eigenvalues --    1.11926   1.17803   1.19114   1.20829   1.32440
 Alpha virt. eigenvalues --    1.33430   1.37848   1.49169   1.49816   1.51963
 Alpha virt. eigenvalues --    1.53550   1.57191   1.90507   1.92002   2.51096
  Beta  occ. eigenvalues --  -11.44043 -11.44037 -11.43995 -11.43963 -11.39907
  Beta  occ. eigenvalues --  -11.39890  -1.38150  -1.25982  -1.21592  -1.05316
  Beta  occ. eigenvalues --   -1.04842  -0.94632  -0.86613  -0.85826  -0.82616
  Beta  occ. eigenvalues --   -0.81728  -0.73250  -0.71293  -0.67936  -0.58500
  Beta virt. eigenvalues --   -0.24700  -0.04073  -0.02748   0.06625   0.13244
  Beta virt. eigenvalues --    0.13508   0.16217   0.16927   0.18287   0.18882
  Beta virt. eigenvalues --    0.26814   0.27996   0.29216   0.30620   0.57318
  Beta virt. eigenvalues --    0.57989   0.66325   0.66979   0.73695   0.75541
  Beta virt. eigenvalues --    0.79171   0.82413   0.83904   0.84692   0.87467
  Beta virt. eigenvalues --    0.88473   0.89106   0.90953   0.96026   1.05915
  Beta virt. eigenvalues --    1.08454   1.11820   1.17940   1.19518   1.20773
  Beta virt. eigenvalues --    1.32542   1.34030   1.38495   1.49868   1.50273
  Beta virt. eigenvalues --    1.52021   1.53187   1.59611   1.91834   1.92443
  Beta virt. eigenvalues --    2.51703
          Condensed to atoms (all electrons):
              1          2          3          4          5          6
     1  H    0.323171   0.383350  -0.023309  -0.000798   0.001362  -0.000013
     2  C    0.383350   5.252178   0.430973  -0.022162  -0.107640   0.001335
     3  C   -0.023309   0.430973   5.252331   0.373765   0.346517  -0.024649
     4  H   -0.000798  -0.022162   0.373765   0.317271  -0.024649  -0.000467
     5  C    0.001362  -0.107640   0.346517  -0.024649   5.252331   0.373765
     6  H   -0.000013   0.001335  -0.024649  -0.000467   0.373765   0.317271
     7  C   -0.000078   0.017042  -0.107640   0.001335   0.430973  -0.022162
     8  H    0.000000  -0.000078   0.001362  -0.000013  -0.023309  -0.000798
     9  C    0.001362  -0.107640   0.011038  -0.000058  -0.117240   0.001745
    10  H   -0.000013   0.001335  -0.000058   0.000000   0.001745  -0.000017
    11  C   -0.023309   0.430973  -0.117240   0.001745   0.011038  -0.000058
    12  H   -0.000798  -0.022162   0.001745  -0.000017  -0.000058   0.000000
              7          8          9         10         11         12
     1  H   -0.000078   0.000000   0.001362  -0.000013  -0.023309  -0.000798
     2  C    0.017042  -0.000078  -0.107640   0.001335   0.430973  -0.022162
     3  C   -0.107640   0.001362   0.011038  -0.000058  -0.117240   0.001745
     4  H    0.001335  -0.000013  -0.000058   0.000000   0.001745  -0.000017
     5  C    0.430973  -0.023309  -0.117240   0.001745   0.011038  -0.000058
     6  H   -0.022162  -0.000798   0.001745  -0.000017  -0.000058   0.000000
     7  C    5.252178   0.383350   0.430973  -0.022162  -0.107640   0.001335
     8  H    0.383350   0.323171  -0.023309  -0.000798   0.001362  -0.000013
     9  C    0.430973  -0.023309   5.252331   0.373765   0.346517  -0.024649
    10  H   -0.022162  -0.000798   0.373765   0.317271  -0.024649  -0.000467
    11  C   -0.107640   0.001362   0.346517  -0.024649   5.252331   0.373765
    12  H    0.001335  -0.000013  -0.024649  -0.000467   0.373765   0.317271
 Mulliken atomic charges:
              1
     1  H    0.339075
     2  C   -0.257504
     3  C   -0.144834
     4  H    0.354048
     5  C   -0.144834
     6  H    0.354048
     7  C   -0.257504
     8  H    0.339075
     9  C   -0.144834
    10  H    0.354048
    11  C   -0.144834
    12  H    0.354048
 Sum of Mulliken charges=   1.00000
 Atomic charges with hydrogens summed into heavy atoms:
              1
     1  H    0.000000
     2  C    0.081571
     3  C    0.209215
     4  H    0.000000
     5  C    0.209215
     6  H    0.000000
     7  C    0.081571
     8  H    0.000000
     9  C    0.209215
    10  H    0.000000
    11  C    0.209215
    12  H    0.000000
 Sum of Mulliken charges=   1.00000
          Atomic-Atomic Spin Densities.
              1          2          3          4          5          6
     1  H    0.018140   0.006809  -0.001452   0.000017   0.000061   0.000001
     2  C    0.006809  -0.430404  -0.000094   0.001654  -0.008483  -0.000053
     3  C   -0.001452  -0.000094   0.499405  -0.008708   0.024537  -0.001196
     4  H    0.000017   0.001654  -0.008708  -0.026085  -0.001196   0.000014
     5  C    0.000061  -0.008483   0.024537  -0.001196   0.499405  -0.008708
     6  H    0.000001  -0.000053  -0.001196   0.000014  -0.008708  -0.026085
     7  C    0.000021   0.007568  -0.008483  -0.000053  -0.000094   0.001654
     8  H    0.000000   0.000021   0.000061   0.000001  -0.001452   0.000017
     9  C    0.000061  -0.008483  -0.006925  -0.000016  -0.008842  -0.000025
    10  H    0.000001  -0.000053  -0.000016   0.000000  -0.000025   0.000002
    11  C   -0.001452  -0.000094  -0.008842  -0.000025  -0.006925  -0.000016
    12  H    0.000017   0.001654  -0.000025   0.000002  -0.000016   0.000000
              7          8          9         10         11         12
     1  H    0.000021   0.000000   0.000061   0.000001  -0.001452   0.000017
     2  C    0.007568   0.000021  -0.008483  -0.000053  -0.000094   0.001654
     3  C   -0.008483   0.000061  -0.006925  -0.000016  -0.008842  -0.000025
     4  H   -0.000053   0.000001  -0.000016   0.000000  -0.000025   0.000002
     5  C   -0.000094  -0.001452  -0.008842  -0.000025  -0.006925  -0.000016
     6  H    0.001654   0.000017  -0.000025   0.000002  -0.000016   0.000000
     7  C   -0.430404   0.006809  -0.000094   0.001654  -0.008483  -0.000053
     8  H    0.006809   0.018140  -0.001452   0.000017   0.000061   0.000001
     9  C   -0.000094  -0.001452   0.499405  -0.008708   0.024537  -0.001196
    10  H    0.001654   0.000017  -0.008708  -0.026085  -0.001196   0.000014
    11  C   -0.008483   0.000061   0.024537  -0.001196   0.499405  -0.008708
    12  H   -0.000053   0.000001  -0.001196   0.000014  -0.008708  -0.026085
 Mulliken atomic spin densities:
              1
     1  H    0.022223
     2  C   -0.429959
     3  C    0.488262
     4  H   -0.034394
     5  C    0.488262
     6  H   -0.034394
     7  C   -0.429959
     8  H    0.022223
     9  C    0.488262
    10  H   -0.034394
    11  C    0.488262
    12  H   -0.034394
 Sum of Mulliken spin densities=   1.00000
 Electronic spatial extent (au):  <R**2>=  1347.4266
 Charge=     1.0000 electrons
 Dipole moment (field-independent basis, Debye):
    X=     0.0000    Y=     0.0000    Z=    11.9398  Tot=    11.9398
 Quadrupole moment (field-independent basis, Debye-Ang):
   XX=   -18.6488   YY=   -37.3503   ZZ=     7.1396
   XY=     0.0000   XZ=     0.0000   YZ=     0.0000
 Traceless Quadrupole moment (field-independent basis, Debye-Ang):
   XX=    -2.3623   YY=   -21.0638   ZZ=    23.4261
   XY=     0.0000   XZ=     0.0000   YZ=     0.0000
 Octapole moment (field-independent basis, Debye-Ang**2):
  XXX=     0.0000  YYY=     0.0000  ZZZ=   -94.3139  XYY=     0.0000
  XXY=     0.0000  XXZ=   -46.3573  XZZ=     0.0000  YZZ=     0.0000
  YYZ=   -92.8453  XYZ=     0.0000
 Hexadecapole moment (field-independent basis, Debye-Ang**3):
 XXXX=  -191.8078 YYYY=   -38.3063 ZZZZ=  -873.6200 XXXY=     0.0000
 XXXZ=     0.0000 YYYX=     0.0000 YYYZ=     0.0000 ZZZX=     0.0000
 ZZZY=     0.0000 XXYY=   -53.1240 XXZZ=  -182.5380 YYZZ=  -290.9362
 XXYZ=     0.0000 YYXZ=     0.0000 ZZXY=     0.0000
 N-N= 2.029039403459D+02 E-N=-9.288208059765D+02  KE= 2.286797203713D+02
                          Isotropic Fermi Contact Couplings
        Atom                 a.u.       MegaHertz       Gauss      10(-4) cm-1
     1  H(1)               0.00659      29.46257      10.51298       9.82766
     2  C(13)             -0.07593     -85.36057     -30.45877     -28.47322
     3  C(13)              0.07222      81.18602      28.96919      27.08074
     4  H(1)              -0.01049     -46.87719     -16.72695     -15.63655
     5  C(13)              0.07222      81.18602      28.96919      27.08074
     6  H(1)              -0.01049     -46.87719     -16.72695     -15.63655
     7  C(13)             -0.07593     -85.36057     -30.45877     -28.47322
     8  H(1)               0.00659      29.46257      10.51298       9.82766
     9  C(13)              0.07222      81.18602      28.96919      27.08074
    10  H(1)              -0.01049     -46.87719     -16.72695     -15.63655
    11  C(13)              0.07222      81.18602      28.96919      27.08074
    12  H(1)              -0.01049     -46.87719     -16.72695     -15.63655
 --------------------------------------------------------
       Center         ----  Spin Dipole Couplings  ----
                      3XX-RR        3YY-RR        3ZZ-RR
 --------------------------------------------------------
     1   Atom        0.017930     -0.003705     -0.014225
     2   Atom        0.119545     -0.236308      0.116763
     3   Atom       -0.176679      0.362820     -0.186141
     4   Atom        0.013074     -0.007439     -0.005635
     5   Atom       -0.176679      0.362820     -0.186141
     6   Atom        0.013074     -0.007439     -0.005635
     7   Atom        0.119545     -0.236308      0.116763
     8   Atom        0.017930     -0.003705     -0.014225
     9   Atom       -0.176679      0.362820     -0.186141
    10   Atom        0.013074     -0.007439     -0.005635
    11   Atom       -0.176679      0.362820     -0.186141
    12   Atom        0.013074     -0.007439     -0.005635
 --------------------------------------------------------
                        XY            XZ            YZ
 --------------------------------------------------------
     1   Atom        0.000000      0.000000      0.000000
     2   Atom        0.000000      0.000000      0.000000
     3   Atom        0.000000     -0.006864      0.000000
     4   Atom        0.000000     -0.034963      0.000000
     5   Atom        0.000000      0.006864      0.000000
     6   Atom        0.000000      0.034963      0.000000
     7   Atom        0.000000      0.000000      0.000000
     8   Atom        0.000000      0.000000      0.000000
     9   Atom        0.000000     -0.006864      0.000000
    10   Atom        0.000000     -0.034963      0.000000
    11   Atom        0.000000      0.006864      0.000000
    12   Atom        0.000000      0.034963      0.000000
 --------------------------------------------------------


 ---------------------------------------------------------------------------------
              Anisotropic Spin Dipole Couplings in Principal Axis System
 ---------------------------------------------------------------------------------

       Atom             a.u.   MegaHertz   Gauss  10(-4) cm-1        Axes

              Baa    -0.0142    -7.590    -2.708    -2.532  0.0000  0.0000  1.0000
     1 H(1)   Bbb    -0.0037    -1.977    -0.705    -0.659  0.0000  1.0000  0.0000
              Bcc     0.0179     9.567     3.414     3.191  1.0000  0.0000  0.0000
 
              Baa    -0.2363   -31.710   -11.315   -10.577  0.0000  1.0000  0.0000
     2 C(13)  Bbb     0.1168    15.669     5.591     5.226  0.0000  0.0000  1.0000
              Bcc     0.1195    16.042     5.724     5.351  1.0000  0.0000  0.0000
 
              Baa    -0.1897   -25.462    -9.086    -8.493  0.4650  0.0000  0.8853
     3 C(13)  Bbb    -0.1731   -23.225    -8.287    -7.747  0.8853  0.0000 -0.4650
              Bcc     0.3628    48.687    17.373    16.240  0.0000  1.0000  0.0000
 
              Baa    -0.0325   -17.326    -6.182    -5.779  0.6089  0.0000  0.7932
     4 H(1)   Bbb    -0.0074    -3.969    -1.416    -1.324  0.0000  1.0000  0.0000
              Bcc     0.0399    21.295     7.599     7.103  0.7932  0.0000 -0.6089
 
              Baa    -0.1897   -25.462    -9.086    -8.493 -0.4650  0.0000  0.8853
     5 C(13)  Bbb    -0.1731   -23.225    -8.287    -7.747  0.8853  0.0000  0.4650
              Bcc     0.3628    48.687    17.373    16.240  0.0000  1.0000  0.0000
 
              Baa    -0.0325   -17.326    -6.182    -5.779 -0.6089  0.0000  0.7932
     6 H(1)   Bbb    -0.0074    -3.969    -1.416    -1.324  0.0000  1.0000  0.0000
              Bcc     0.0399    21.295     7.599     7.103  0.7932  0.0000  0.6089
 
              Baa    -0.2363   -31.710   -11.315   -10.577  0.0000  1.0000  0.0000
     7 C(13)  Bbb     0.1168    15.669     5.591     5.226  0.0000  0.0000  1.0000
              Bcc     0.1195    16.042     5.724     5.351  1.0000  0.0000  0.0000
 
              Baa    -0.0142    -7.590    -2.708    -2.532  0.0000  0.0000  1.0000
     8 H(1)   Bbb    -0.0037    -1.977    -0.705    -0.659  0.0000  1.0000  0.0000
              Bcc     0.0179     9.567     3.414     3.191  1.0000  0.0000  0.0000
 
              Baa    -0.1897   -25.462    -9.086    -8.493  0.4650  0.0000  0.8853
     9 C(13)  Bbb    -0.1731   -23.225    -8.287    -7.747  0.8853  0.0000 -0.4650
              Bcc     0.3628    48.687    17.373    16.240  0.0000  1.0000  0.0000
 
              Baa    -0.0325   -17.326    -6.182    -5.779  0.6089  0.0000  0.7932
    10 H(1)   Bbb    -0.0074    -3.969    -1.416    -1.324  0.0000  1.0000  0.0000
              Bcc     0.0399    21.295     7.599     7.103  0.7932  0.0000 -0.6089
 
              Baa    -0.1897   -25.462    -9.086    -8.493 -0.4650  0.0000  0.8853
    11 C(13)  Bbb    -0.1731   -23.225    -8.287    -7.747  0.8853  0.0000  0.4650
              Bcc     0.3628    48.687    17.373    16.240  0.0000  1.0000  0.0000
 
              Baa    -0.0325   -17.326    -6.182    -5.779 -0.6089  0.0000  0.7932
    12 H(1)   Bbb    -0.0074    -3.969    -1.416    -1.324  0.0000  1.0000  0.0000
              Bcc     0.0399    21.295     7.599     7.103  0.7932  0.0000  0.6089
 

 ---------------------------------------------------------------------------------

 Atom   4 needs variable   1=   1.0715493839 but is    1.0695266497
 Input z-matrix variables are not compatible with final structure.
 1|1|UNPC-UNK|FOpt|UHF|3-21G|C6H6(1+,2)|PCUSER|20-May-2009|0||# UHF/3-2
 1G opt nosym||_Benzene||1,2|H,0.,0.,-0.0113337391|C,0.,0.,1.0581929106
 |C,1.1879227257,-0.0000000001,1.7618895135|H,2.1278341857,0.,1.2473173
 325|C,1.1879227257,0.,3.2097104865|H,2.1278341857,0.,3.7242826675|C,0.
 ,-0.0000000001,3.9134070894|H,0.,0.,4.9829337391|C,-1.1879227257,0.000
 0000001,3.2097104865|H,-2.1278341857,0.,3.7242826675|C,-1.1879227257,0
 .,1.7618895135|H,-2.1278341857,0.,1.2473173325||Version=IA32W-G03RevE.
 01|HF=-229.1274237|S2=0.859846|S2-1=0.|S2A=0.756774|RMSD=2.574e-009|RM
 SF=1.043e-004|Thermal=0.|Dipole=0.,0.,0.|PG=D02H [C2"(H1C1.C1H1),SG(C4
 H4)]||@


 MICRO CREDO - NEVER TRUST A COMPUTER BIGGER
               BIGGER THAN YOU CAN LIFT.
 Job cpu time:  0 days  0 hours  0 minutes 10.0 seconds.
 File lengths (MBytes):  RWF=     16 Int=      0 D2E=      0 Chk=     12 Scr=      1
 Normal termination of Gaussian 03 at Wed May 20 12:27:30 2009.
