 Entering Link 1 = C:\G03W\l1.exe PID=      3044.
  
 Copyright (c) 1988,1990,1992,1993,1995,1998,2003,2004,2007, Gaussian, Inc.
                  All Rights Reserved.
  
 This is the Gaussian(R) 03 program.  It is based on the
 the Gaussian(R) 98 system (copyright 1998, Gaussian, Inc.),
 the Gaussian(R) 94 system (copyright 1995, Gaussian, Inc.),
 the Gaussian 92(TM) system (copyright 1992, Gaussian, Inc.),
 the Gaussian 90(TM) system (copyright 1990, Gaussian, Inc.),
 the Gaussian 88(TM) system (copyright 1988, Gaussian, Inc.),
 the Gaussian 86(TM) system (copyright 1986, Carnegie Mellon
 University), and the Gaussian 82(TM) system (copyright 1983,
 Carnegie Mellon University). Gaussian is a federally registered
 trademark of Gaussian, Inc.
  
 This software contains proprietary and confidential information,
 including trade secrets, belonging to Gaussian, Inc.
  
 This software is provided under written license and may be
 used, copied, transmitted, or stored only in accord with that
 written license.
  
 The following legend is applicable only to US Government
 contracts under FAR:
  
                    RESTRICTED RIGHTS LEGEND
  
 Use, reproduction and disclosure by the US Government is
 subject to restrictions as set forth in subparagraphs (a)
 and (c) of the Commercial Computer Software - Restricted
 Rights clause in FAR 52.227-19.
  
 Gaussian, Inc.
 340 Quinnipiac St., Bldg. 40, Wallingford CT 06492
  
  
 ---------------------------------------------------------------
 Warning -- This program may not be used in any manner that
 competes with the business of Gaussian, Inc. or will provide
 assistance to any competitor of Gaussian, Inc.  The licensee
 of this program is prohibited from giving any competitor of
 Gaussian, Inc. access to this program.  By using this program,
 the user acknowledges that Gaussian, Inc. is engaged in the
 business of creating and licensing software in the field of
 computational chemistry and represents and warrants to the
 licensee that it is not a competitor of Gaussian, Inc. and that
 it will not use this program in any manner prohibited above.
 ---------------------------------------------------------------
  

 Cite this work as:
 Gaussian 03, Revision E.01,
 M. J. Frisch, G. W. Trucks, H. B. Schlegel, G. E. Scuseria, 
 M. A. Robb, J. R. Cheeseman, J. A. Montgomery, Jr., T. Vreven, 
 K. N. Kudin, J. C. Burant, J. M. Millam, S. S. Iyengar, J. Tomasi, 
 V. Barone, B. Mennucci, M. Cossi, G. Scalmani, N. Rega, 
 G. A. Petersson, H. Nakatsuji, M. Hada, M. Ehara, K. Toyota, 
 R. Fukuda, J. Hasegawa, M. Ishida, T. Nakajima, Y. Honda, O. Kitao, 
 H. Nakai, M. Klene, X. Li, J. E. Knox, H. P. Hratchian, J. B. Cross, 
 V. Bakken, C. Adamo, J. Jaramillo, R. Gomperts, R. E. Stratmann, 
 O. Yazyev, A. J. Austin, R. Cammi, C. Pomelli, J. W. Ochterski, 
 P. Y. Ayala, K. Morokuma, G. A. Voth, P. Salvador, J. J. Dannenberg, 
 V. G. Zakrzewski, S. Dapprich, A. D. Daniels, M. C. Strain, 
 O. Farkas, D. K. Malick, A. D. Rabuck, K. Raghavachari, 
 J. B. Foresman, J. V. Ortiz, Q. Cui, A. G. Baboul, S. Clifford, 
 J. Cioslowski, B. B. Stefanov, G. Liu, A. Liashenko, P. Piskorz, 
 I. Komaromi, R. L. Martin, D. J. Fox, T. Keith, M. A. Al-Laham, 
 C. Y. Peng, A. Nanayakkara, M. Challacombe, P. M. W. Gill, 
 B. Johnson, W. Chen, M. W. Wong, C. Gonzalez, and J. A. Pople, 
 Gaussian, Inc., Wallingford CT, 2004.
 
 ******************************************
 Gaussian 03:  IA32W-G03RevE.01 11-Sep-2007
                20-May-2009 
 ******************************************
 %chk=benzene.chk
 --------------
 # HF/3-21G opt
 --------------
 1/18=20,38=1/1,3;
 2/9=110,17=6,18=5,40=1/2;
 3/5=5,11=9,16=1,25=1,30=1/1,2,3;
 4//1;
 5/5=2,38=5/2;
 6/7=2,8=2,9=2,10=2,28=1/1;
 7//1,2,3,16;
 1/18=20/3(3);
 2/9=110/2;
 6/7=2,8=2,9=2,10=2,19=2,28=1/1;
 99//99;
 2/9=110/2;
 3/5=5,11=9,16=1,25=1,30=1/1,2,3;
 4/5=5,16=3/1;
 5/5=2,38=5/2;
 7//1,2,3,16;
 1/18=20/3(-5);
 2/9=110/2;
 6/7=2,8=2,9=2,10=2,19=2,28=1/1;
 99/9=1/99;
 --------
 _Benzene
 --------
 Symbolic Z-matrix:
 Charge =  0 Multiplicity = 1
 H
 C                    1    r2
 C                    2    r3       1    a3
 H                    3    r2       2    a3       1    d4       0
 C                    3    r3       2    a3       1    d5       0
 H                    5    r2       3    a3       2    d5       0
 C                    5    r3       3    a3       2    d4       0
 H                    7    r2       5    a3       3    d5       0
 C                    7    r3       5    a3       3    d4       0
 H                    9    r2       7    a3       5    d5       0
 C                    9    r3       7    a3       5    d4       0
 H                    11   r2       9    a3       7    d5       0
       Variables:
  r2                    1.0947                   
  r3                    1.3911                   
  a3                  120.                       
  d4                  360.                       
  d5                  180.                       
 

 GradGradGradGradGradGradGradGradGradGradGradGradGradGradGradGradGradGrad
 Berny optimization.
 Initialization pass.
                           ----------------------------
                           !    Initial Parameters    !
                           ! (Angstroms and Degrees)  !
 --------------------------                            --------------------------
 ! Name  Definition              Value          Derivative Info.                !
 --------------------------------------------------------------------------------
 ! R1    R(1,2)                  1.0947         estimate D2E/DX2                !
 ! R2    R(2,3)                  1.3911         estimate D2E/DX2                !
 ! R3    R(2,11)                 1.3911         estimate D2E/DX2                !
 ! R4    R(3,4)                  1.0947         estimate D2E/DX2                !
 ! R5    R(3,5)                  1.3911         estimate D2E/DX2                !
 ! R6    R(5,6)                  1.0947         estimate D2E/DX2                !
 ! R7    R(5,7)                  1.3911         estimate D2E/DX2                !
 ! R8    R(7,8)                  1.0947         estimate D2E/DX2                !
 ! R9    R(7,9)                  1.3911         estimate D2E/DX2                !
 ! R10   R(9,10)                 1.0947         estimate D2E/DX2                !
 ! R11   R(9,11)                 1.3911         estimate D2E/DX2                !
 ! R12   R(11,12)                1.0947         estimate D2E/DX2                !
 ! A1    A(1,2,3)              120.0            estimate D2E/DX2                !
 ! A2    A(1,2,11)             120.0            estimate D2E/DX2                !
 ! A3    A(3,2,11)             120.0            estimate D2E/DX2                !
 ! A4    A(2,3,4)              120.0            estimate D2E/DX2                !
 ! A5    A(2,3,5)              120.0            estimate D2E/DX2                !
 ! A6    A(4,3,5)              120.0            estimate D2E/DX2                !
 ! A7    A(3,5,6)              120.0            estimate D2E/DX2                !
 ! A8    A(3,5,7)              120.0            estimate D2E/DX2                !
 ! A9    A(6,5,7)              120.0            estimate D2E/DX2                !
 ! A10   A(5,7,8)              120.0            estimate D2E/DX2                !
 ! A11   A(5,7,9)              120.0            estimate D2E/DX2                !
 ! A12   A(8,7,9)              120.0            estimate D2E/DX2                !
 ! A13   A(7,9,10)             120.0            estimate D2E/DX2                !
 ! A14   A(7,9,11)             120.0            estimate D2E/DX2                !
 ! A15   A(10,9,11)            120.0            estimate D2E/DX2                !
 ! A16   A(2,11,9)             120.0            estimate D2E/DX2                !
 ! A17   A(2,11,12)            120.0            estimate D2E/DX2                !
 ! A18   A(9,11,12)            120.0            estimate D2E/DX2                !
 ! D1    D(1,2,3,4)              0.0            estimate D2E/DX2                !
 ! D2    D(1,2,3,5)            180.0            estimate D2E/DX2                !
 ! D3    D(11,2,3,4)           180.0            estimate D2E/DX2                !
 ! D4    D(11,2,3,5)             0.0            estimate D2E/DX2                !
 ! D5    D(1,2,11,9)           180.0            estimate D2E/DX2                !
 ! D6    D(1,2,11,12)            0.0            estimate D2E/DX2                !
 ! D7    D(3,2,11,9)             0.0            estimate D2E/DX2                !
 ! D8    D(3,2,11,12)          180.0            estimate D2E/DX2                !
 ! D9    D(2,3,5,6)            180.0            estimate D2E/DX2                !
 ! D10   D(2,3,5,7)              0.0            estimate D2E/DX2                !
 ! D11   D(4,3,5,6)              0.0            estimate D2E/DX2                !
 ! D12   D(4,3,5,7)            180.0            estimate D2E/DX2                !
 ! D13   D(3,5,7,8)            180.0            estimate D2E/DX2                !
 ! D14   D(3,5,7,9)              0.0            estimate D2E/DX2                !
 ! D15   D(6,5,7,8)              0.0            estimate D2E/DX2                !
 ! D16   D(6,5,7,9)            180.0            estimate D2E/DX2                !
 ! D17   D(5,7,9,10)           180.0            estimate D2E/DX2                !
 ! D18   D(5,7,9,11)             0.0            estimate D2E/DX2                !
 ! D19   D(8,7,9,10)             0.0            estimate D2E/DX2                !
 ! D20   D(8,7,9,11)           180.0            estimate D2E/DX2                !
 ! D21   D(7,9,11,2)             0.0            estimate D2E/DX2                !
 ! D22   D(7,9,11,12)          180.0            estimate D2E/DX2                !
 ! D23   D(10,9,11,2)          180.0            estimate D2E/DX2                !
 ! D24   D(10,9,11,12)           0.0            estimate D2E/DX2                !
 --------------------------------------------------------------------------------
 Trust Radius=3.00D-01 FncErr=1.00D-07 GrdErr=1.00D-07
 Number of steps in this run=  64 maximum allowed number of steps= 100.
 GradGradGradGradGradGradGradGradGradGradGradGradGradGradGradGradGradGrad

                          Input orientation:                          
 ---------------------------------------------------------------------
 Center     Atomic     Atomic              Coordinates (Angstroms)
 Number     Number      Type              X           Y           Z
 ---------------------------------------------------------------------
    1          1             0        0.000000    0.000000    0.000000
    2          6             0        0.000000    0.000000    1.094700
    3          6             0        1.204728    0.000000    1.790250
    4          1             0        2.152766    0.000000    1.242900
    5          6             0        1.204728    0.000000    3.181350
    6          1             0        2.152766    0.000000    3.728700
    7          6             0        0.000000    0.000000    3.876900
    8          1             0        0.000000    0.000000    4.971600
    9          6             0       -1.204728    0.000000    3.181350
   10          1             0       -2.152766    0.000000    3.728700
   11          6             0       -1.204728    0.000000    1.790250
   12          1             0       -2.152766    0.000000    1.242900
 ---------------------------------------------------------------------
                    Distance matrix (angstroms):
                    1          2          3          4          5
     1  H    0.000000
     2  C    1.094700   0.000000
     3  C    2.157861   1.391100   0.000000
     4  H    2.485800   2.157861   1.094700   0.000000
     5  C    3.401817   2.409456   1.391100   2.157861   0.000000
     6  H    4.305532   3.401817   2.157861   2.485800   1.094700
     7  C    3.876900   2.782200   2.409456   3.401817   1.391100
     8  H    4.971600   3.876900   3.401817   4.305532   2.157861
     9  C    3.401817   2.409456   2.782200   3.876900   2.409456
    10  H    4.305532   3.401817   3.876900   4.971600   3.401817
    11  C    2.157861   1.391100   2.409456   3.401817   2.782200
    12  H    2.485800   2.157861   3.401817   4.305532   3.876900
                    6          7          8          9         10
     6  H    0.000000
     7  C    2.157861   0.000000
     8  H    2.485800   1.094700   0.000000
     9  C    3.401817   1.391100   2.157861   0.000000
    10  H    4.305532   2.157861   2.485800   1.094700   0.000000
    11  C    3.876900   2.409456   3.401817   1.391100   2.157861
    12  H    4.971600   3.401817   4.305532   2.157861   2.485800
                   11         12
    11  C    0.000000
    12  H    1.094700   0.000000
 Stoichiometry    C6H6
 Framework group  D6H[3C2'(HC.CH)]
 Deg. of freedom     2
 Full point group                 D6H
 Largest Abelian subgroup         D2H     NOp   8
 Largest concise Abelian subgroup D2      NOp   4
                         Standard orientation:                         
 ---------------------------------------------------------------------
 Center     Atomic     Atomic              Coordinates (Angstroms)
 Number     Number      Type              X           Y           Z
 ---------------------------------------------------------------------
    1          1             0        0.000000    2.485800    0.000000
    2          6             0        0.000000    1.391100    0.000000
    3          6             0        1.204728    0.695550    0.000000
    4          1             0        2.152766    1.242900    0.000000
    5          6             0        1.204728   -0.695550    0.000000
    6          1             0        2.152766   -1.242900    0.000000
    7          6             0        0.000000   -1.391100    0.000000
    8          1             0        0.000000   -2.485800    0.000000
    9          6             0       -1.204728   -0.695550    0.000000
   10          1             0       -2.152766   -1.242900    0.000000
   11          6             0       -1.204728    0.695550    0.000000
   12          1             0       -2.152766    1.242900    0.000000
 ---------------------------------------------------------------------
 Rotational constants (GHZ):      5.7202965      5.7202965      2.8601482
 Standard basis: 3-21G (6D, 7F)
 There are    16 symmetry adapted basis functions of AG  symmetry.
 There are    11 symmetry adapted basis functions of B1G symmetry.
 There are     2 symmetry adapted basis functions of B2G symmetry.
 There are     4 symmetry adapted basis functions of B3G symmetry.
 There are     2 symmetry adapted basis functions of AU  symmetry.
 There are     4 symmetry adapted basis functions of B1U symmetry.
 There are    16 symmetry adapted basis functions of B2U symmetry.
 There are    11 symmetry adapted basis functions of B3U symmetry.
 Integral buffers will be    262144 words long.
 Raffenetti 1 integral format.
 Two-electron integral symmetry is turned on.
    66 basis functions,   108 primitive gaussians,    66 cartesian basis functions
    21 alpha electrons       21 beta electrons
       nuclear repulsion energy       203.6546548248 Hartrees.
 NAtoms=   12 NActive=   12 NUniq=    2 SFac= 3.00D+00 NAtFMM=   80 NAOKFM=F Big=F
 One-electron integrals computed using PRISM.
 NBasis=    66 RedAO= T  NBF=    16    11     2     4     2     4    16    11
 NBsUse=    66 1.00D-06 NBFU=    16    11     2     4     2     4    16    11
 Harris functional with IExCor=  205 diagonalized for initial guess.
 ExpMin= 1.83D-01 ExpMax= 1.72D+02 ExpMxC= 1.72D+02 IAcc=1 IRadAn=         1 AccDes= 1.00D-06
 HarFok:  IExCor= 205 AccDes= 1.00D-06 IRadAn=         1 IDoV=1
 ScaDFX=  1.000000  1.000000  1.000000  1.000000
 Initial guess orbital symmetries:
       Occupied  (B1U) (E2G) (E2G) (E1U) (E1U) (A1G) (A1G) (E1U)
                 (E1U) (E2G) (E2G) (A1G) (B2U) (B1U) (E1U) (E1U)
                 (A2U) (E2G) (E2G) (E1G) (E1G)
       Virtual   (E2U) (E2U) (B2G) (A1G) (E1U) (E1U) (E2G) (E2G)
                 (B1U) (E2G) (E2G) (E1U) (E1U) (A2G) (B1U) (B2U)
                 (A2U) (A1G) (E2G) (E2G) (E1G) (E1G) (E1U) (E1U)
                 (E2U) (E2U) (A1G) (B2G) (B1U) (E2G) (E2G) (A2G)
                 (E1U) (E1U) (A1G) (E1U) (E1U) (B1U) (E2G) (E2G)
                 (E1U) (E1U) (E2G) (E2G) (B1U)
 The electronic state of the initial guess is 1-A1G.
 Requested convergence on RMS density matrix=1.00D-08 within 128 cycles.
 Requested convergence on MAX density matrix=1.00D-06.
 Requested convergence on             energy=1.00D-06.
 No special actions if energy rises.
 Keep R1 integrals in memory in canonical form, NReq=     3425952.
 SCF Done:  E(RHF) =  -229.417053793     A.U. after    8 cycles
             Convg  =    0.3944D-08             -V/T =  2.0031
             S**2   =   0.0000

 **********************************************************************

            Population analysis using the SCF density.

 **********************************************************************

 Orbital symmetries:
       Occupied  (B1U) (E2G) (E2G) (E1U) (E1U) (A1G) (A1G) (E1U)
                 (E1U) (E2G) (E2G) (A1G) (B1U) (B2U) (E1U) (E1U)
                 (A2U) (E2G) (E2G) (E1G) (E1G)
       Virtual   (E2U) (E2U) (A1G) (E1U) (E1U) (E2G) (E2G) (B1U)
                 (B2G) (E2G) (E2G) (E1U) (E1U) (A2G) (B1U) (B2U)
                 (A1G) (A2U) (E2G) (E2G) (E1G) (E1G) (E1U) (E1U)
                 (E2U) (E2U) (A1G) (B2G) (B1U) (E2G) (E2G) (E1U)
                 (E1U) (A2G) (E1U) (E1U) (A1G) (B1U) (E2G) (E2G)
                 (E1U) (E1U) (E2G) (E2G) (B1U)
 The electronic state is 1-A1G.
 Alpha  occ. eigenvalues --  -11.18103 -11.18079 -11.18079 -11.18055 -11.18055
 Alpha  occ. eigenvalues --  -11.17996  -1.15355  -1.01291  -1.01291  -0.82091
 Alpha  occ. eigenvalues --   -0.82091  -0.71189  -0.63219  -0.62309  -0.58759
 Alpha  occ. eigenvalues --   -0.58759  -0.50664  -0.48830  -0.48830  -0.33863
 Alpha  occ. eigenvalues --   -0.33863
 Alpha virt. eigenvalues --    0.14896   0.14896   0.24933   0.31772   0.31772
 Alpha virt. eigenvalues --    0.36620   0.36620   0.36746   0.37141   0.50363
 Alpha virt. eigenvalues --    0.50363   0.52156   0.52156   0.80736   0.82323
 Alpha virt. eigenvalues --    0.87454   0.91251   0.95516   1.00241   1.00241
 Alpha virt. eigenvalues --    1.05270   1.05270   1.08061   1.08061   1.10566
 Alpha virt. eigenvalues --    1.10566   1.13092   1.17597   1.27309   1.29685
 Alpha virt. eigenvalues --    1.29685   1.39828   1.39828   1.41490   1.56372
 Alpha virt. eigenvalues --    1.56372   1.58189   1.71833   1.73349   1.73349
 Alpha virt. eigenvalues --    1.80553   1.80553   2.16227   2.16227   2.75382
          Condensed to atoms (all electrons):
              1          2          3          4          5          6
     1  H    0.427192   0.396310  -0.031379  -0.001284   0.002203  -0.000033
     2  C    0.396310   5.177277   0.470218  -0.031379  -0.108699   0.002203
     3  C   -0.031379   0.470218   5.177277   0.396310   0.470218  -0.031379
     4  H   -0.001284  -0.031379   0.396310   0.427192  -0.031379  -0.001284
     5  C    0.002203  -0.108699   0.470218  -0.031379   5.177277   0.396310
     6  H   -0.000033   0.002203  -0.031379  -0.001284   0.396310   0.427192
     7  C   -0.000096  -0.000596  -0.108699   0.002203   0.470218  -0.031379
     8  H    0.000001  -0.000096   0.002203  -0.000033  -0.031379  -0.001284
     9  C    0.002203  -0.108699  -0.000596  -0.000096  -0.108699   0.002203
    10  H   -0.000033   0.002203  -0.000096   0.000001   0.002203  -0.000033
    11  C   -0.031379   0.470218  -0.108699   0.002203  -0.000596  -0.000096
    12  H   -0.001284  -0.031379   0.002203  -0.000033  -0.000096   0.000001
              7          8          9         10         11         12
     1  H   -0.000096   0.000001   0.002203  -0.000033  -0.031379  -0.001284
     2  C   -0.000596  -0.000096  -0.108699   0.002203   0.470218  -0.031379
     3  C   -0.108699   0.002203  -0.000596  -0.000096  -0.108699   0.002203
     4  H    0.002203  -0.000033  -0.000096   0.000001   0.002203  -0.000033
     5  C    0.470218  -0.031379  -0.108699   0.002203  -0.000596  -0.000096
     6  H   -0.031379  -0.001284   0.002203  -0.000033  -0.000096   0.000001
     7  C    5.177277   0.396310   0.470218  -0.031379  -0.108699   0.002203
     8  H    0.396310   0.427192  -0.031379  -0.001284   0.002203  -0.000033
     9  C    0.470218  -0.031379   5.177277   0.396310   0.470218  -0.031379
    10  H   -0.031379  -0.001284   0.396310   0.427192  -0.031379  -0.001284
    11  C   -0.108699   0.002203   0.470218  -0.031379   5.177277   0.396310
    12  H    0.002203  -0.000033  -0.031379  -0.001284   0.396310   0.427192
 Mulliken atomic charges:
              1
     1  H    0.237581
     2  C   -0.237581
     3  C   -0.237581
     4  H    0.237581
     5  C   -0.237581
     6  H    0.237581
     7  C   -0.237581
     8  H    0.237581
     9  C   -0.237581
    10  H    0.237581
    11  C   -0.237581
    12  H    0.237581
 Sum of Mulliken charges=   0.00000
 Atomic charges with hydrogens summed into heavy atoms:
              1
     1  H    0.000000
     2  C    0.000000
     3  C    0.000000
     4  H    0.000000
     5  C    0.000000
     6  H    0.000000
     7  C    0.000000
     8  H    0.000000
     9  C    0.000000
    10  H    0.000000
    11  C    0.000000
    12  H    0.000000
 Sum of Mulliken charges=   0.00000
 Electronic spatial extent (au):  <R**2>=   458.6785
 Charge=     0.0000 electrons
 Dipole moment (field-independent basis, Debye):
    X=     0.0000    Y=     0.0000    Z=     0.0000  Tot=     0.0000
 Quadrupole moment (field-independent basis, Debye-Ang):
   XX=   -31.4957   YY=   -31.4957   ZZ=   -41.2483
   XY=     0.0000   XZ=     0.0000   YZ=     0.0000
 Traceless Quadrupole moment (field-independent basis, Debye-Ang):
   XX=     3.2509   YY=     3.2509   ZZ=    -6.5017
   XY=     0.0000   XZ=     0.0000   YZ=     0.0000
 Octapole moment (field-independent basis, Debye-Ang**2):
  XXX=     0.0000  YYY=     0.0000  ZZZ=     0.0000  XYY=     0.0000
  XXY=     0.0000  XXZ=     0.0000  XZZ=     0.0000  YZZ=     0.0000
  YYZ=     0.0000  XYZ=     0.0000
 Hexadecapole moment (field-independent basis, Debye-Ang**3):
 XXXX=  -260.4688 YYYY=  -260.4688 ZZZZ=   -44.0984 XXXY=     0.0000
 XXXZ=     0.0000 YYYX=     0.0000 YYYZ=     0.0000 ZZZX=     0.0000
 ZZZY=     0.0000 XXYY=   -86.8229 XXZZ=   -62.9836 YYZZ=   -62.9836
 XXYZ=     0.0000 YYXZ=     0.0000 ZZXY=     0.0000
 N-N= 2.036546548248D+02 E-N=-9.404436061186D+02  KE= 2.287156599263D+02
 Symmetry AG   KE= 7.384008389792D+01
 Symmetry B1G  KE= 3.734071674396D+01
 Symmetry B2G  KE= 2.065872228185D+00
 Symmetry B3G  KE= 2.065872228185D+00
 Symmetry AU   KE=-2.408560444690D-16
 Symmetry B1U  KE= 1.747744228343D+00
 Symmetry B2U  KE= 7.151662789631D+01
 Symmetry B3U  KE= 4.013874270338D+01
 ***** Axes restored to original set *****
 -------------------------------------------------------------------
 Center     Atomic                   Forces (Hartrees/Bohr)
 Number     Number              X              Y              Z
 -------------------------------------------------------------------
    1          1           0.000000000    0.000000000    0.016172872
    2          6           0.000000000    0.000000000   -0.008788699
    3          6           0.007611237    0.000000000   -0.004394350
    4          1          -0.014006118    0.000000000    0.008086436
    5          6           0.007611237    0.000000000    0.004394350
    6          1          -0.014006118    0.000000000   -0.008086436
    7          6           0.000000000    0.000000000    0.008788699
    8          1           0.000000000    0.000000000   -0.016172872
    9          6          -0.007611237    0.000000000    0.004394350
   10          1           0.014006118    0.000000000   -0.008086436
   11          6          -0.007611237    0.000000000   -0.004394350
   12          1           0.014006118    0.000000000    0.008086436
 -------------------------------------------------------------------
 Cartesian Forces:  Max     0.016172872 RMS     0.007514464

 GradGradGradGradGradGradGradGradGradGradGradGradGradGradGradGradGradGrad
 Berny optimization.
 Internal  Forces:  Max     0.016172872 RMS     0.005926286
 Search for a local minimum.
 Step number   1 out of a maximum of  64
 All quantities printed in internal units (Hartrees-Bohrs-Radians)
 Second derivative matrix not updated -- first step.
     Eigenvalues ---    0.02206   0.02206   0.02206   0.02206   0.02206
     Eigenvalues ---    0.02206   0.02206   0.02206   0.02206   0.16000
     Eigenvalues ---    0.16000   0.16000   0.16000   0.16000   0.16000
     Eigenvalues ---    0.22000   0.22000   0.22000   0.34275   0.34275
     Eigenvalues ---    0.34275   0.34275   0.34275   0.34275   0.42646
     Eigenvalues ---    0.42646   0.47128   0.47128   0.47128   0.47128
     Eigenvalues --- 1000.000001000.000001000.000001000.000001000.00000
     Eigenvalues --- 1000.000001000.000001000.000001000.000001000.00000
     Eigenvalues --- 1000.000001000.000001000.000001000.000001000.00000
     Eigenvalues --- 1000.000001000.000001000.000001000.000001000.00000
     Eigenvalues --- 1000.000001000.000001000.000001000.00000
 RFO step:  Lambda=-5.19697767D-03.
 Linear search not attempted -- first point.
 Iteration  1 RMS(Cart)=  0.02129546 RMS(Int)=  0.00000000
 Iteration  2 RMS(Cart)=  0.00000000 RMS(Int)=  0.00000000
 Variable       Old X    -DE/DX   Delta X   Delta X   Delta X     New X
                                 (Linear)    (Quad)   (Total)
    R1        2.06868  -0.01617   0.00000  -0.04648  -0.04648   2.02220
    R2        2.62880  -0.00738   0.00000  -0.01550  -0.01550   2.61330
    R3        2.62880  -0.00738   0.00000  -0.01550  -0.01550   2.61330
    R4        2.06868  -0.01617   0.00000  -0.04648  -0.04648   2.02220
    R5        2.62880  -0.00738   0.00000  -0.01550  -0.01550   2.61330
    R6        2.06868  -0.01617   0.00000  -0.04648  -0.04648   2.02220
    R7        2.62880  -0.00738   0.00000  -0.01550  -0.01550   2.61330
    R8        2.06868  -0.01617   0.00000  -0.04648  -0.04648   2.02220
    R9        2.62880  -0.00738   0.00000  -0.01550  -0.01550   2.61330
   R10        2.06868  -0.01617   0.00000  -0.04648  -0.04648   2.02220
   R11        2.62880  -0.00738   0.00000  -0.01550  -0.01550   2.61330
   R12        2.06868  -0.01617   0.00000  -0.04648  -0.04648   2.02220
    A1        2.09440   0.00000   0.00000   0.00000   0.00000   2.09440
    A2        2.09440   0.00000   0.00000   0.00000   0.00000   2.09440
    A3        2.09440   0.00000   0.00000   0.00000   0.00000   2.09440
    A4        2.09440   0.00000   0.00000   0.00000   0.00000   2.09440
    A5        2.09440   0.00000   0.00000   0.00000   0.00000   2.09440
    A6        2.09440   0.00000   0.00000   0.00000   0.00000   2.09440
    A7        2.09440   0.00000   0.00000   0.00000   0.00000   2.09440
    A8        2.09440   0.00000   0.00000   0.00000   0.00000   2.09440
    A9        2.09440   0.00000   0.00000   0.00000   0.00000   2.09440
   A10        2.09440   0.00000   0.00000   0.00000   0.00000   2.09440
   A11        2.09440   0.00000   0.00000   0.00000   0.00000   2.09440
   A12        2.09440   0.00000   0.00000   0.00000   0.00000   2.09440
   A13        2.09440   0.00000   0.00000   0.00000   0.00000   2.09440
   A14        2.09440   0.00000   0.00000   0.00000   0.00000   2.09440
   A15        2.09440   0.00000   0.00000   0.00000   0.00000   2.09440
   A16        2.09440   0.00000   0.00000   0.00000   0.00000   2.09440
   A17        2.09440   0.00000   0.00000   0.00000   0.00000   2.09440
   A18        2.09440   0.00000   0.00000   0.00000   0.00000   2.09440
    D1        0.00000   0.00000   0.00000   0.00000   0.00000   0.00000
    D2        3.14159   0.00000   0.00000   0.00000   0.00000   3.14159
    D3        3.14159   0.00000   0.00000   0.00000   0.00000   3.14159
    D4        0.00000   0.00000   0.00000   0.00000   0.00000   0.00000
    D5        3.14159   0.00000   0.00000   0.00000   0.00000   3.14159
    D6        0.00000   0.00000   0.00000   0.00000   0.00000   0.00000
    D7        0.00000   0.00000   0.00000   0.00000   0.00000   0.00000
    D8        3.14159   0.00000   0.00000   0.00000   0.00000   3.14159
    D9        3.14159   0.00000   0.00000   0.00000   0.00000   3.14159
   D10        0.00000   0.00000   0.00000   0.00000   0.00000   0.00000
   D11        0.00000   0.00000   0.00000   0.00000   0.00000   0.00000
   D12        3.14159   0.00000   0.00000   0.00000   0.00000   3.14159
   D13        3.14159   0.00000   0.00000   0.00000   0.00000   3.14159
   D14        0.00000   0.00000   0.00000   0.00000   0.00000   0.00000
   D15        0.00000   0.00000   0.00000   0.00000   0.00000   0.00000
   D16        3.14159   0.00000   0.00000   0.00000   0.00000   3.14159
   D17        3.14159   0.00000   0.00000   0.00000   0.00000   3.14159
   D18        0.00000   0.00000   0.00000   0.00000   0.00000   0.00000
   D19        0.00000   0.00000   0.00000   0.00000   0.00000   0.00000
   D20        3.14159   0.00000   0.00000   0.00000   0.00000   3.14159
   D21        0.00000   0.00000   0.00000   0.00000   0.00000   0.00000
   D22        3.14159   0.00000   0.00000   0.00000   0.00000   3.14159
   D23        3.14159   0.00000   0.00000   0.00000   0.00000   3.14159
   D24        0.00000   0.00000   0.00000   0.00000   0.00000   0.00000
         Item               Value     Threshold  Converged?
 Maximum Force            0.016173     0.000450     NO 
 RMS     Force            0.005926     0.000300     NO 
 Maximum Displacement     0.061978     0.001800     NO 
 RMS     Displacement     0.021295     0.001200     NO 
 Predicted change in Energy=-2.635917D-03
 GradGradGradGradGradGradGradGradGradGradGradGradGradGradGradGradGradGrad

                          Input orientation:                          
 ---------------------------------------------------------------------
 Center     Atomic     Atomic              Coordinates (Angstroms)
 Number     Number      Type              X           Y           Z
 ---------------------------------------------------------------------
    1          1             0        0.000000    0.000000    0.032797
    2          6             0        0.000000    0.000000    1.102901
    3          6             0        1.197626    0.000000    1.794350
    4          1             0        2.124363    0.000000    1.259299
    5          6             0        1.197626    0.000000    3.177250
    6          1             0        2.124363    0.000000    3.712301
    7          6             0        0.000000    0.000000    3.868699
    8          1             0        0.000000    0.000000    4.938803
    9          6             0       -1.197626    0.000000    3.177250
   10          1             0       -2.124363    0.000000    3.712301
   11          6             0       -1.197626    0.000000    1.794350
   12          1             0       -2.124363    0.000000    1.259299
 ---------------------------------------------------------------------
                    Distance matrix (angstroms):
                    1          2          3          4          5
     1  H    0.000000
     2  C    1.070103   0.000000
     3  C    2.130112   1.382899   0.000000
     4  H    2.453003   2.130112   1.070103   0.000000
     5  C    3.364801   2.395251   1.382899   2.130112   0.000000
     6  H    4.248725   3.364801   2.130112   2.453003   1.070103
     7  C    3.835902   2.765798   2.395251   3.364801   1.382899
     8  H    4.906005   3.835902   3.364801   4.248725   2.130112
     9  C    3.364801   2.395251   2.765798   3.835902   2.395251
    10  H    4.248725   3.364801   3.835902   4.906005   3.364801
    11  C    2.130112   1.382899   2.395251   3.364801   2.765798
    12  H    2.453003   2.130112   3.364801   4.248725   3.835902
                    6          7          8          9         10
     6  H    0.000000
     7  C    2.130112   0.000000
     8  H    2.453003   1.070103   0.000000
     9  C    3.364801   1.382899   2.130112   0.000000
    10  H    4.248725   2.130112   2.453003   1.070103   0.000000
    11  C    3.835902   2.395251   3.364801   1.382899   2.130112
    12  H    4.906005   3.364801   4.248725   2.130112   2.453003
                   11         12
    11  C    0.000000
    12  H    1.070103   0.000000
 Stoichiometry    C6H6
 Framework group  D6H[3C2'(HC.CH)]
 Deg. of freedom     2
 Full point group                 D6H
 Largest Abelian subgroup         D2H     NOp   8
 Largest concise Abelian subgroup D2      NOp   4
                         Standard orientation:                         
 ---------------------------------------------------------------------
 Center     Atomic     Atomic              Coordinates (Angstroms)
 Number     Number      Type              X           Y           Z
 ---------------------------------------------------------------------
    1          1             0        0.000000    2.453003    0.000000
    2          6             0        0.000000    1.382899    0.000000
    3          6             0        1.197626    0.691450    0.000000
    4          1             0        2.124363    1.226501    0.000000
    5          6             0        1.197626   -0.691450    0.000000
    6          1             0        2.124363   -1.226501    0.000000
    7          6             0        0.000000   -1.382899    0.000000
    8          1             0        0.000000   -2.453003    0.000000
    9          6             0       -1.197626   -0.691450    0.000000
   10          1             0       -2.124363   -1.226501    0.000000
   11          6             0       -1.197626    0.691450    0.000000
   12          1             0       -2.124363    1.226501    0.000000
 ---------------------------------------------------------------------
 Rotational constants (GHZ):      5.8063062      5.8063062      2.9031531
 Standard basis: 3-21G (6D, 7F)
 There are    16 symmetry adapted basis functions of AG  symmetry.
 There are    11 symmetry adapted basis functions of B1G symmetry.
 There are     2 symmetry adapted basis functions of B2G symmetry.
 There are     4 symmetry adapted basis functions of B3G symmetry.
 There are     2 symmetry adapted basis functions of AU  symmetry.
 There are     4 symmetry adapted basis functions of B1U symmetry.
 There are    16 symmetry adapted basis functions of B2U symmetry.
 There are    11 symmetry adapted basis functions of B3U symmetry.
 Integral buffers will be    262144 words long.
 Raffenetti 1 integral format.
 Two-electron integral symmetry is turned on.
    66 basis functions,   108 primitive gaussians,    66 cartesian basis functions
    21 alpha electrons       21 beta electrons
       nuclear repulsion energy       205.3820158860 Hartrees.
 NAtoms=   12 NActive=   12 NUniq=    2 SFac= 3.00D+00 NAtFMM=   80 NAOKFM=F Big=F
 One-electron integrals computed using PRISM.
 NBasis=    66 RedAO= T  NBF=    16    11     2     4     2     4    16    11
 NBsUse=    66 1.00D-06 NBFU=    16    11     2     4     2     4    16    11
 Initial guess read from the read-write file:
 Initial guess orbital symmetries:
       Occupied  (B1U) (E2G) (E2G) (E1U) (E1U) (A1G) (A1G) (E1U)
                 (E1U) (E2G) (E2G) (A1G) (B1U) (B2U) (E1U) (E1U)
                 (A2U) (E2G) (E2G) (E1G) (E1G)
       Virtual   (E2U) (E2U) (A1G) (E1U) (E1U) (E2G) (E2G) (B1U)
                 (B2G) (E2G) (E2G) (E1U) (E1U) (A2G) (B1U) (B2U)
                 (A1G) (A2U) (E2G) (E2G) (E1G) (E1G) (E1U) (E1U)
                 (E2U) (E2U) (A1G) (B2G) (B1U) (E2G) (E2G) (E1U)
                 (E1U) (A2G) (E1U) (E1U) (A1G) (B1U) (E2G) (E2G)
                 (E1U) (E1U) (E2G) (E2G) (B1U)
 Harris functional with IExCor=  205 diagonalized for initial guess.
 ExpMin= 1.83D-01 ExpMax= 1.72D+02 ExpMxC= 1.72D+02 IAcc=1 IRadAn=         1 AccDes= 1.00D-06
 HarFok:  IExCor= 205 AccDes= 1.00D-06 IRadAn=         1 IDoV=1
 ScaDFX=  1.000000  1.000000  1.000000  1.000000
 Requested convergence on RMS density matrix=1.00D-08 within 128 cycles.
 Requested convergence on MAX density matrix=1.00D-06.
 Requested convergence on             energy=1.00D-06.
 No special actions if energy rises.
 Keep R1 integrals in memory in canonical form, NReq=     3425952.
 SCF Done:  E(RHF) =  -229.419410256     A.U. after    7 cycles
             Convg  =    0.7336D-08             -V/T =  2.0015
             S**2   =   0.0000
 ***** Axes restored to original set *****
 -------------------------------------------------------------------
 Center     Atomic                   Forces (Hartrees/Bohr)
 Number     Number              X              Y              Z
 -------------------------------------------------------------------
    1          1           0.000000000    0.000000000   -0.001560774
    2          6           0.000000000    0.000000000   -0.000295505
    3          6           0.000255915    0.000000000   -0.000147753
    4          1           0.001351670    0.000000000   -0.000780387
    5          6           0.000255915    0.000000000    0.000147753
    6          1           0.001351670    0.000000000    0.000780387
    7          6           0.000000000    0.000000000    0.000295505
    8          1           0.000000000    0.000000000    0.001560774
    9          6          -0.000255915    0.000000000    0.000147753
   10          1          -0.001351670    0.000000000    0.000780387
   11          6          -0.000255915    0.000000000   -0.000147753
   12          1          -0.001351670    0.000000000   -0.000780387
 -------------------------------------------------------------------
 Cartesian Forces:  Max     0.001560774 RMS     0.000648503

 GradGradGradGradGradGradGradGradGradGradGradGradGradGradGradGradGradGrad
 Berny optimization.
 Internal  Forces:  Max     0.001856279 RMS     0.000808413
 Search for a local minimum.
 Step number   2 out of a maximum of  64
 All quantities printed in internal units (Hartrees-Bohrs-Radians)
 Update second derivatives using D2CorX and points  1  2
 Trust test= 8.94D-01 RLast= 1.20D-01 DXMaxT set to 3.60D-01
     Eigenvalues ---    0.02206   0.02206   0.02206   0.02206   0.02206
     Eigenvalues ---    0.02206   0.02206   0.02206   0.02206   0.16000
     Eigenvalues ---    0.16000   0.16000   0.16000   0.16000   0.16000
     Eigenvalues ---    0.22000   0.22000   0.22000   0.34275   0.34275
     Eigenvalues ---    0.34275   0.34275   0.34275   0.36237   0.42603
     Eigenvalues ---    0.42603   0.47128   0.47128   0.47128   0.50517
     Eigenvalues --- 1000.000001000.000001000.000001000.000001000.00000
     Eigenvalues --- 1000.000001000.000001000.000001000.000001000.00000
     Eigenvalues --- 1000.000001000.000001000.000001000.000001000.00000
     Eigenvalues --- 1000.000001000.000001000.000001000.000001000.00000
     Eigenvalues --- 1000.000001000.000001000.000001000.00000
 RFO step:  Lambda=-1.20439916D-05.
 Quartic linear search produced a step of -0.09896.
 Iteration  1 RMS(Cart)=  0.00260849 RMS(Int)=  0.00000000
 Iteration  2 RMS(Cart)=  0.00000000 RMS(Int)=  0.00000000
 Variable       Old X    -DE/DX   Delta X   Delta X   Delta X     New X
                                 (Linear)    (Quad)   (Total)
    R1        2.02220   0.00156   0.00460  -0.00098   0.00362   2.02582
    R2        2.61330   0.00186   0.00153   0.00189   0.00342   2.61672
    R3        2.61330   0.00186   0.00153   0.00189   0.00342   2.61672
    R4        2.02220   0.00156   0.00460  -0.00098   0.00362   2.02582
    R5        2.61330   0.00186   0.00153   0.00189   0.00342   2.61672
    R6        2.02220   0.00156   0.00460  -0.00098   0.00362   2.02582
    R7        2.61330   0.00186   0.00153   0.00189   0.00342   2.61672
    R8        2.02220   0.00156   0.00460  -0.00098   0.00362   2.02582
    R9        2.61330   0.00186   0.00153   0.00189   0.00342   2.61672
   R10        2.02220   0.00156   0.00460  -0.00098   0.00362   2.02582
   R11        2.61330   0.00186   0.00153   0.00189   0.00342   2.61672
   R12        2.02220   0.00156   0.00460  -0.00098   0.00362   2.02582
    A1        2.09440   0.00000   0.00000   0.00000   0.00000   2.09440
    A2        2.09440   0.00000   0.00000   0.00000   0.00000   2.09440
    A3        2.09440   0.00000   0.00000   0.00000   0.00000   2.09440
    A4        2.09440   0.00000   0.00000   0.00000   0.00000   2.09440
    A5        2.09440   0.00000   0.00000   0.00000   0.00000   2.09440
    A6        2.09440   0.00000   0.00000   0.00000   0.00000   2.09440
    A7        2.09440   0.00000   0.00000   0.00000   0.00000   2.09440
    A8        2.09440   0.00000   0.00000   0.00000   0.00000   2.09440
    A9        2.09440   0.00000   0.00000   0.00000   0.00000   2.09440
   A10        2.09440   0.00000   0.00000   0.00000   0.00000   2.09440
   A11        2.09440   0.00000   0.00000   0.00000   0.00000   2.09440
   A12        2.09440   0.00000   0.00000   0.00000   0.00000   2.09440
   A13        2.09440   0.00000   0.00000   0.00000   0.00000   2.09440
   A14        2.09440   0.00000   0.00000   0.00000   0.00000   2.09440
   A15        2.09440   0.00000   0.00000   0.00000   0.00000   2.09440
   A16        2.09440   0.00000   0.00000   0.00000   0.00000   2.09440
   A17        2.09440   0.00000   0.00000   0.00000   0.00000   2.09440
   A18        2.09440   0.00000   0.00000   0.00000   0.00000   2.09440
    D1        0.00000   0.00000   0.00000   0.00000   0.00000   0.00000
    D2        3.14159   0.00000   0.00000   0.00000   0.00000   3.14159
    D3        3.14159   0.00000   0.00000   0.00000   0.00000   3.14159
    D4        0.00000   0.00000   0.00000   0.00000   0.00000   0.00000
    D5        3.14159   0.00000   0.00000   0.00000   0.00000   3.14159
    D6        0.00000   0.00000   0.00000   0.00000   0.00000   0.00000
    D7        0.00000   0.00000   0.00000   0.00000   0.00000   0.00000
    D8        3.14159   0.00000   0.00000   0.00000   0.00000   3.14159
    D9        3.14159   0.00000   0.00000   0.00000   0.00000   3.14159
   D10        0.00000   0.00000   0.00000   0.00000   0.00000   0.00000
   D11        0.00000   0.00000   0.00000   0.00000   0.00000   0.00000
   D12        3.14159   0.00000   0.00000   0.00000   0.00000   3.14159
   D13        3.14159   0.00000   0.00000   0.00000   0.00000   3.14159
   D14        0.00000   0.00000   0.00000   0.00000   0.00000   0.00000
   D15        0.00000   0.00000   0.00000   0.00000   0.00000   0.00000
   D16        3.14159   0.00000   0.00000   0.00000   0.00000   3.14159
   D17        3.14159   0.00000   0.00000   0.00000   0.00000   3.14159
   D18        0.00000   0.00000   0.00000   0.00000   0.00000   0.00000
   D19        0.00000   0.00000   0.00000   0.00000   0.00000   0.00000
   D20        3.14159   0.00000   0.00000   0.00000   0.00000   3.14159
   D21        0.00000   0.00000   0.00000   0.00000   0.00000   0.00000
   D22        3.14159   0.00000   0.00000   0.00000   0.00000   3.14159
   D23        3.14159   0.00000   0.00000   0.00000   0.00000   3.14159
   D24        0.00000   0.00000   0.00000   0.00000   0.00000   0.00000
         Item               Value     Threshold  Converged?
 Maximum Force            0.001856     0.000450     NO 
 RMS     Force            0.000808     0.000300     NO 
 Maximum Displacement     0.007038     0.001800     NO 
 RMS     Displacement     0.002608     0.001200     NO 
 Predicted change in Energy=-3.752518D-05
 GradGradGradGradGradGradGradGradGradGradGradGradGradGradGradGradGradGrad

                          Input orientation:                          
 ---------------------------------------------------------------------
 Center     Atomic     Atomic              Coordinates (Angstroms)
 Number     Number      Type              X           Y           Z
 ---------------------------------------------------------------------
    1          1             0        0.000000    0.000000    0.029073
    2          6             0        0.000000    0.000000    1.101090
    3          6             0        1.199194    0.000000    1.793445
    4          1             0        2.127588    0.000000    1.257437
    5          6             0        1.199194    0.000000    3.178155
    6          1             0        2.127588    0.000000    3.714163
    7          6             0        0.000000    0.000000    3.870510
    8          1             0        0.000000    0.000000    4.942527
    9          6             0       -1.199194    0.000000    3.178155
   10          1             0       -2.127588    0.000000    3.714163
   11          6             0       -1.199194    0.000000    1.793445
   12          1             0       -2.127588    0.000000    1.257437
 ---------------------------------------------------------------------
                    Distance matrix (angstroms):
                    1          2          3          4          5
     1  H    0.000000
     2  C    1.072017   0.000000
     3  C    2.133325   1.384710   0.000000
     4  H    2.456727   2.133325   1.072017   0.000000
     5  C    3.369686   2.398388   1.384710   2.133325   0.000000
     6  H    4.255176   3.369686   2.133325   2.456727   1.072017
     7  C    3.841436   2.769419   2.398388   3.369686   1.384710
     8  H    4.913454   3.841436   3.369686   4.255176   2.133325
     9  C    3.369686   2.398388   2.769419   3.841436   2.398388
    10  H    4.255176   3.369686   3.841436   4.913454   3.369686
    11  C    2.133325   1.384710   2.398388   3.369686   2.769419
    12  H    2.456727   2.133325   3.369686   4.255176   3.841436
                    6          7          8          9         10
     6  H    0.000000
     7  C    2.133325   0.000000
     8  H    2.456727   1.072017   0.000000
     9  C    3.369686   1.384710   2.133325   0.000000
    10  H    4.255176   2.133325   2.456727   1.072017   0.000000
    11  C    3.841436   2.398388   3.369686   1.384710   2.133325
    12  H    4.913454   3.369686   4.255176   2.133325   2.456727
                   11         12
    11  C    0.000000
    12  H    1.072017   0.000000
 Stoichiometry    C6H6
 Framework group  D6H[3C2'(HC.CH)]
 Deg. of freedom     2
 Full point group                 D6H
 Largest Abelian subgroup         D2H     NOp   8
 Largest concise Abelian subgroup D2      NOp   4
                         Standard orientation:                         
 ---------------------------------------------------------------------
 Center     Atomic     Atomic              Coordinates (Angstroms)
 Number     Number      Type              X           Y           Z
 ---------------------------------------------------------------------
    1          1             0        0.000000    2.456727    0.000000
    2          6             0        0.000000    1.384710    0.000000
    3          6             0        1.199194    0.692355    0.000000
    4          1             0        2.127588    1.228363    0.000000
    5          6             0        1.199194   -0.692355    0.000000
    6          1             0        2.127588   -1.228363    0.000000
    7          6             0        0.000000   -1.384710    0.000000
    8          1             0        0.000000   -2.456727    0.000000
    9          6             0       -1.199194   -0.692355    0.000000
   10          1             0       -2.127588   -1.228363    0.000000
   11          6             0       -1.199194    0.692355    0.000000
   12          1             0       -2.127588    1.228363    0.000000
 ---------------------------------------------------------------------
 Rotational constants (GHZ):      5.7906265      5.7906265      2.8953132
 Standard basis: 3-21G (6D, 7F)
 There are    16 symmetry adapted basis functions of AG  symmetry.
 There are    11 symmetry adapted basis functions of B1G symmetry.
 There are     2 symmetry adapted basis functions of B2G symmetry.
 There are     4 symmetry adapted basis functions of B3G symmetry.
 There are     2 symmetry adapted basis functions of AU  symmetry.
 There are     4 symmetry adapted basis functions of B1U symmetry.
 There are    16 symmetry adapted basis functions of B2U symmetry.
 There are    11 symmetry adapted basis functions of B3U symmetry.
 Integral buffers will be    262144 words long.
 Raffenetti 1 integral format.
 Two-electron integral symmetry is turned on.
    66 basis functions,   108 primitive gaussians,    66 cartesian basis functions
    21 alpha electrons       21 beta electrons
       nuclear repulsion energy       205.0986500017 Hartrees.
 NAtoms=   12 NActive=   12 NUniq=    2 SFac= 3.00D+00 NAtFMM=   80 NAOKFM=F Big=F
 One-electron integrals computed using PRISM.
 NBasis=    66 RedAO= T  NBF=    16    11     2     4     2     4    16    11
 NBsUse=    66 1.00D-06 NBFU=    16    11     2     4     2     4    16    11
 Initial guess read from the read-write file:
 Initial guess orbital symmetries:
       Occupied  (B1U) (E2G) (E2G) (E1U) (E1U) (A1G) (A1G) (E1U)
                 (E1U) (E2G) (E2G) (A1G) (B1U) (B2U) (E1U) (E1U)
                 (A2U) (E2G) (E2G) (E1G) (E1G)
       Virtual   (E2U) (E2U) (A1G) (E1U) (E1U) (E2G) (E2G) (B2G)
                 (B1U) (E2G) (E2G) (E1U) (E1U) (A2G) (B1U) (B2U)
                 (A1G) (A2U) (E2G) (E2G) (E1G) (E1G) (E1U) (E1U)
                 (E2U) (E2U) (A1G) (B2G) (B1U) (E2G) (E2G) (E1U)
                 (E1U) (A2G) (E1U) (E1U) (A1G) (B1U) (E2G) (E2G)
                 (E1U) (E1U) (E2G) (E2G) (B1U)
 Requested convergence on RMS density matrix=1.00D-08 within 128 cycles.
 Requested convergence on MAX density matrix=1.00D-06.
 Requested convergence on             energy=1.00D-06.
 No special actions if energy rises.
 Keep R1 integrals in memory in canonical form, NReq=     3425952.
 SCF Done:  E(RHF) =  -229.419445317     A.U. after    6 cycles
             Convg  =    0.8682D-08             -V/T =  2.0017
             S**2   =   0.0000
 ***** Axes restored to original set *****
 -------------------------------------------------------------------
 Center     Atomic                   Forces (Hartrees/Bohr)
 Number     Number              X              Y              Z
 -------------------------------------------------------------------
    1          1           0.000000000    0.000000000   -0.000067965
    2          6           0.000000000    0.000000000    0.000223847
    3          6          -0.000193858    0.000000000    0.000111924
    4          1           0.000058860    0.000000000   -0.000033983
    5          6          -0.000193858    0.000000000   -0.000111924
    6          1           0.000058860    0.000000000    0.000033983
    7          6           0.000000000    0.000000000   -0.000223847
    8          1           0.000000000    0.000000000    0.000067965
    9          6           0.000193858    0.000000000   -0.000111924
   10          1          -0.000058860    0.000000000    0.000033983
   11          6           0.000193858    0.000000000    0.000111924
   12          1          -0.000058860    0.000000000   -0.000033983
 -------------------------------------------------------------------
 Cartesian Forces:  Max     0.000223847 RMS     0.000095505

 GradGradGradGradGradGradGradGradGradGradGradGradGradGradGradGradGradGrad
 Berny optimization.
 Internal  Forces:  Max     0.000155882 RMS     0.000056685
 Search for a local minimum.
 Step number   3 out of a maximum of  64
 All quantities printed in internal units (Hartrees-Bohrs-Radians)
 Update second derivatives using D2CorX and points  1  2  3
 Trust test= 9.34D-01 RLast= 1.22D-02 DXMaxT set to 3.60D-01
     Eigenvalues ---    0.02206   0.02206   0.02206   0.02206   0.02206
     Eigenvalues ---    0.02206   0.02206   0.02206   0.02206   0.16000
     Eigenvalues ---    0.16000   0.16000   0.16000   0.16000   0.16000
     Eigenvalues ---    0.22000   0.22000   0.22000   0.34275   0.34275
     Eigenvalues ---    0.34275   0.34275   0.34275   0.35746   0.42612
     Eigenvalues ---    0.42612   0.47128   0.47128   0.47128   0.55102
     Eigenvalues --- 1000.000001000.000001000.000001000.000001000.00000
     Eigenvalues --- 1000.000001000.000001000.000001000.000001000.00000
     Eigenvalues --- 1000.000001000.000001000.000001000.000001000.00000
     Eigenvalues --- 1000.000001000.000001000.000001000.000001000.00000
     Eigenvalues --- 1000.000001000.000001000.000001000.00000
 RFO step:  Lambda=-3.38283909D-07.
 Quartic linear search produced a step of -0.02353.
 Iteration  1 RMS(Cart)=  0.00010675 RMS(Int)=  0.00000000
 Iteration  2 RMS(Cart)=  0.00000000 RMS(Int)=  0.00000000
 Variable       Old X    -DE/DX   Delta X   Delta X   Delta X     New X
                                 (Linear)    (Quad)   (Total)
    R1        2.02582   0.00007  -0.00009   0.00031   0.00022   2.02604
    R2        2.61672  -0.00016  -0.00008  -0.00023  -0.00031   2.61641
    R3        2.61672  -0.00016  -0.00008  -0.00023  -0.00031   2.61641
    R4        2.02582   0.00007  -0.00009   0.00031   0.00022   2.02604
    R5        2.61672  -0.00016  -0.00008  -0.00023  -0.00031   2.61641
    R6        2.02582   0.00007  -0.00009   0.00031   0.00022   2.02604
    R7        2.61672  -0.00016  -0.00008  -0.00023  -0.00031   2.61641
    R8        2.02582   0.00007  -0.00009   0.00031   0.00022   2.02604
    R9        2.61672  -0.00016  -0.00008  -0.00023  -0.00031   2.61641
   R10        2.02582   0.00007  -0.00009   0.00031   0.00022   2.02604
   R11        2.61672  -0.00016  -0.00008  -0.00023  -0.00031   2.61641
   R12        2.02582   0.00007  -0.00009   0.00031   0.00022   2.02604
    A1        2.09440   0.00000   0.00000   0.00000   0.00000   2.09440
    A2        2.09440   0.00000   0.00000   0.00000   0.00000   2.09440
    A3        2.09440   0.00000   0.00000   0.00000   0.00000   2.09440
    A4        2.09440   0.00000   0.00000   0.00000   0.00000   2.09440
    A5        2.09440   0.00000   0.00000   0.00000   0.00000   2.09440
    A6        2.09440   0.00000   0.00000   0.00000   0.00000   2.09440
    A7        2.09440   0.00000   0.00000   0.00000   0.00000   2.09440
    A8        2.09440   0.00000   0.00000   0.00000   0.00000   2.09440
    A9        2.09440   0.00000   0.00000   0.00000   0.00000   2.09440
   A10        2.09440   0.00000   0.00000   0.00000   0.00000   2.09440
   A11        2.09440   0.00000   0.00000   0.00000   0.00000   2.09440
   A12        2.09440   0.00000   0.00000   0.00000   0.00000   2.09440
   A13        2.09440   0.00000   0.00000   0.00000   0.00000   2.09440
   A14        2.09440   0.00000   0.00000   0.00000   0.00000   2.09440
   A15        2.09440   0.00000   0.00000   0.00000   0.00000   2.09440
   A16        2.09440   0.00000   0.00000   0.00000   0.00000   2.09440
   A17        2.09440   0.00000   0.00000   0.00000   0.00000   2.09440
   A18        2.09440   0.00000   0.00000   0.00000   0.00000   2.09440
    D1        0.00000   0.00000   0.00000   0.00000   0.00000   0.00000
    D2        3.14159   0.00000   0.00000   0.00000   0.00000   3.14159
    D3        3.14159   0.00000   0.00000   0.00000   0.00000   3.14159
    D4        0.00000   0.00000   0.00000   0.00000   0.00000   0.00000
    D5        3.14159   0.00000   0.00000   0.00000   0.00000   3.14159
    D6        0.00000   0.00000   0.00000   0.00000   0.00000   0.00000
    D7        0.00000   0.00000   0.00000   0.00000   0.00000   0.00000
    D8        3.14159   0.00000   0.00000   0.00000   0.00000   3.14159
    D9        3.14159   0.00000   0.00000   0.00000   0.00000   3.14159
   D10        0.00000   0.00000   0.00000   0.00000   0.00000   0.00000
   D11        0.00000   0.00000   0.00000   0.00000   0.00000   0.00000
   D12        3.14159   0.00000   0.00000   0.00000   0.00000   3.14159
   D13        3.14159   0.00000   0.00000   0.00000   0.00000   3.14159
   D14        0.00000   0.00000   0.00000   0.00000   0.00000   0.00000
   D15        0.00000   0.00000   0.00000   0.00000   0.00000   0.00000
   D16        3.14159   0.00000   0.00000   0.00000   0.00000   3.14159
   D17        3.14159   0.00000   0.00000   0.00000   0.00000   3.14159
   D18        0.00000   0.00000   0.00000   0.00000   0.00000   0.00000
   D19        0.00000   0.00000   0.00000   0.00000   0.00000   0.00000
   D20        3.14159   0.00000   0.00000   0.00000   0.00000   3.14159
   D21        0.00000   0.00000   0.00000   0.00000   0.00000   0.00000
   D22        3.14159   0.00000   0.00000   0.00000   0.00000   3.14159
   D23        3.14159   0.00000   0.00000   0.00000   0.00000   3.14159
   D24        0.00000   0.00000   0.00000   0.00000   0.00000   0.00000
         Item               Value     Threshold  Converged?
 Maximum Force            0.000156     0.000450     YES
 RMS     Force            0.000057     0.000300     YES
 Maximum Displacement     0.000308     0.001800     YES
 RMS     Displacement     0.000107     0.001200     YES
 Predicted change in Energy=-1.894581D-07
 Optimization completed.
    -- Stationary point found.
                           ----------------------------
                           !   Optimized Parameters   !
                           ! (Angstroms and Degrees)  !
 --------------------------                            --------------------------
 ! Name  Definition              Value          Derivative Info.                !
 --------------------------------------------------------------------------------
 ! R1    R(1,2)                  1.072          -DE/DX =    0.0001              !
 ! R2    R(2,3)                  1.3847         -DE/DX =   -0.0002              !
 ! R3    R(2,11)                 1.3847         -DE/DX =   -0.0002              !
 ! R4    R(3,4)                  1.072          -DE/DX =    0.0001              !
 ! R5    R(3,5)                  1.3847         -DE/DX =   -0.0002              !
 ! R6    R(5,6)                  1.072          -DE/DX =    0.0001              !
 ! R7    R(5,7)                  1.3847         -DE/DX =   -0.0002              !
 ! R8    R(7,8)                  1.072          -DE/DX =    0.0001              !
 ! R9    R(7,9)                  1.3847         -DE/DX =   -0.0002              !
 ! R10   R(9,10)                 1.072          -DE/DX =    0.0001              !
 ! R11   R(9,11)                 1.3847         -DE/DX =   -0.0002              !
 ! R12   R(11,12)                1.072          -DE/DX =    0.0001              !
 ! A1    A(1,2,3)              120.0            -DE/DX =    0.0                 !
 ! A2    A(1,2,11)             120.0            -DE/DX =    0.0                 !
 ! A3    A(3,2,11)             120.0            -DE/DX =    0.0                 !
 ! A4    A(2,3,4)              120.0            -DE/DX =    0.0                 !
 ! A5    A(2,3,5)              120.0            -DE/DX =    0.0                 !
 ! A6    A(4,3,5)              120.0            -DE/DX =    0.0                 !
 ! A7    A(3,5,6)              120.0            -DE/DX =    0.0                 !
 ! A8    A(3,5,7)              120.0            -DE/DX =    0.0                 !
 ! A9    A(6,5,7)              120.0            -DE/DX =    0.0                 !
 ! A10   A(5,7,8)              120.0            -DE/DX =    0.0                 !
 ! A11   A(5,7,9)              120.0            -DE/DX =    0.0                 !
 ! A12   A(8,7,9)              120.0            -DE/DX =    0.0                 !
 ! A13   A(7,9,10)             120.0            -DE/DX =    0.0                 !
 ! A14   A(7,9,11)             120.0            -DE/DX =    0.0                 !
 ! A15   A(10,9,11)            120.0            -DE/DX =    0.0                 !
 ! A16   A(2,11,9)             120.0            -DE/DX =    0.0                 !
 ! A17   A(2,11,12)            120.0            -DE/DX =    0.0                 !
 ! A18   A(9,11,12)            120.0            -DE/DX =    0.0                 !
 ! D1    D(1,2,3,4)              0.0            -DE/DX =    0.0                 !
 ! D2    D(1,2,3,5)            180.0            -DE/DX =    0.0                 !
 ! D3    D(11,2,3,4)           180.0            -DE/DX =    0.0                 !
 ! D4    D(11,2,3,5)             0.0            -DE/DX =    0.0                 !
 ! D5    D(1,2,11,9)           180.0            -DE/DX =    0.0                 !
 ! D6    D(1,2,11,12)            0.0            -DE/DX =    0.0                 !
 ! D7    D(3,2,11,9)             0.0            -DE/DX =    0.0                 !
 ! D8    D(3,2,11,12)          180.0            -DE/DX =    0.0                 !
 ! D9    D(2,3,5,6)            180.0            -DE/DX =    0.0                 !
 ! D10   D(2,3,5,7)              0.0            -DE/DX =    0.0                 !
 ! D11   D(4,3,5,6)              0.0            -DE/DX =    0.0                 !
 ! D12   D(4,3,5,7)            180.0            -DE/DX =    0.0                 !
 ! D13   D(3,5,7,8)            180.0            -DE/DX =    0.0                 !
 ! D14   D(3,5,7,9)              0.0            -DE/DX =    0.0                 !
 ! D15   D(6,5,7,8)              0.0            -DE/DX =    0.0                 !
 ! D16   D(6,5,7,9)            180.0            -DE/DX =    0.0                 !
 ! D17   D(5,7,9,10)           180.0            -DE/DX =    0.0                 !
 ! D18   D(5,7,9,11)             0.0            -DE/DX =    0.0                 !
 ! D19   D(8,7,9,10)             0.0            -DE/DX =    0.0                 !
 ! D20   D(8,7,9,11)           180.0            -DE/DX =    0.0                 !
 ! D21   D(7,9,11,2)             0.0            -DE/DX =    0.0                 !
 ! D22   D(7,9,11,12)          180.0            -DE/DX =    0.0                 !
 ! D23   D(10,9,11,2)          180.0            -DE/DX =    0.0                 !
 ! D24   D(10,9,11,12)           0.0            -DE/DX =    0.0                 !
 --------------------------------------------------------------------------------
 GradGradGradGradGradGradGradGradGradGradGradGradGradGradGradGradGradGrad

                          Input orientation:                          
 ---------------------------------------------------------------------
 Center     Atomic     Atomic              Coordinates (Angstroms)
 Number     Number      Type              X           Y           Z
 ---------------------------------------------------------------------
    1          1             0        0.000000    0.000000    0.029073
    2          6             0        0.000000    0.000000    1.101090
    3          6             0        1.199194    0.000000    1.793445
    4          1             0        2.127588    0.000000    1.257437
    5          6             0        1.199194    0.000000    3.178155
    6          1             0        2.127588    0.000000    3.714163
    7          6             0        0.000000    0.000000    3.870510
    8          1             0        0.000000    0.000000    4.942527
    9          6             0       -1.199194    0.000000    3.178155
   10          1             0       -2.127588    0.000000    3.714163
   11          6             0       -1.199194    0.000000    1.793445
   12          1             0       -2.127588    0.000000    1.257437
 ---------------------------------------------------------------------
                    Distance matrix (angstroms):
                    1          2          3          4          5
     1  H    0.000000
     2  C    1.072017   0.000000
     3  C    2.133325   1.384710   0.000000
     4  H    2.456727   2.133325   1.072017   0.000000
     5  C    3.369686   2.398388   1.384710   2.133325   0.000000
     6  H    4.255176   3.369686   2.133325   2.456727   1.072017
     7  C    3.841436   2.769419   2.398388   3.369686   1.384710
     8  H    4.913454   3.841436   3.369686   4.255176   2.133325
     9  C    3.369686   2.398388   2.769419   3.841436   2.398388
    10  H    4.255176   3.369686   3.841436   4.913454   3.369686
    11  C    2.133325   1.384710   2.398388   3.369686   2.769419
    12  H    2.456727   2.133325   3.369686   4.255176   3.841436
                    6          7          8          9         10
     6  H    0.000000
     7  C    2.133325   0.000000
     8  H    2.456727   1.072017   0.000000
     9  C    3.369686   1.384710   2.133325   0.000000
    10  H    4.255176   2.133325   2.456727   1.072017   0.000000
    11  C    3.841436   2.398388   3.369686   1.384710   2.133325
    12  H    4.913454   3.369686   4.255176   2.133325   2.456727
                   11         12
    11  C    0.000000
    12  H    1.072017   0.000000
 Stoichiometry    C6H6
 Framework group  D6H[3C2'(HC.CH)]
 Deg. of freedom     2
 Full point group                 D6H
 Largest Abelian subgroup         D2H     NOp   8
 Largest concise Abelian subgroup D2      NOp   4
                         Standard orientation:                         
 ---------------------------------------------------------------------
 Center     Atomic     Atomic              Coordinates (Angstroms)
 Number     Number      Type              X           Y           Z
 ---------------------------------------------------------------------
    1          1             0        0.000000    2.456727    0.000000
    2          6             0        0.000000    1.384710    0.000000
    3          6             0        1.199194    0.692355    0.000000
    4          1             0        2.127588    1.228363    0.000000
    5          6             0        1.199194   -0.692355    0.000000
    6          1             0        2.127588   -1.228363    0.000000
    7          6             0        0.000000   -1.384710    0.000000
    8          1             0        0.000000   -2.456727    0.000000
    9          6             0       -1.199194   -0.692355    0.000000
   10          1             0       -2.127588   -1.228363    0.000000
   11          6             0       -1.199194    0.692355    0.000000
   12          1             0       -2.127588    1.228363    0.000000
 ---------------------------------------------------------------------
 Rotational constants (GHZ):      5.7906265      5.7906265      2.8953132

 **********************************************************************

            Population analysis using the SCF density.

 **********************************************************************

 Orbital symmetries:
       Occupied  (B1U) (E2G) (E2G) (E1U) (E1U) (A1G) (A1G) (E1U)
                 (E1U) (E2G) (E2G) (A1G) (B1U) (B2U) (E1U) (E1U)
                 (A2U) (E2G) (E2G) (E1G) (E1G)
       Virtual   (E2U) (E2U) (A1G) (E1U) (E1U) (E2G) (E2G) (B2G)
                 (B1U) (E2G) (E2G) (E1U) (E1U) (A2G) (B1U) (B2U)
                 (A1G) (A2U) (E2G) (E2G) (E1G) (E1G) (E1U) (E1U)
                 (E2U) (E2U) (A1G) (B2G) (B1U) (E2G) (E2G) (E1U)
                 (E1U) (A2G) (E1U) (E1U) (A1G) (B1U) (E2G) (E2G)
                 (E1U) (E1U) (E2G) (E2G) (B1U)
 The electronic state is 1-A1G.
 Alpha  occ. eigenvalues --  -11.17550 -11.17527 -11.17527 -11.17506 -11.17506
 Alpha  occ. eigenvalues --  -11.17449  -1.15729  -1.01648  -1.01648  -0.82563
 Alpha  occ. eigenvalues --   -0.82563  -0.71991  -0.63955  -0.62488  -0.59281
 Alpha  occ. eigenvalues --   -0.59281  -0.50842  -0.49145  -0.49145  -0.33897
 Alpha  occ. eigenvalues --   -0.33897
 Alpha virt. eigenvalues --    0.15121   0.15121   0.25741   0.32454   0.32454
 Alpha virt. eigenvalues --    0.37203   0.37203   0.37542   0.37566   0.50850
 Alpha virt. eigenvalues --    0.50850   0.52423   0.52423   0.81331   0.83500
 Alpha virt. eigenvalues --    0.87045   0.90676   0.95557   1.00751   1.00751
 Alpha virt. eigenvalues --    1.05372   1.05372   1.08856   1.08856   1.10793
 Alpha virt. eigenvalues --    1.10793   1.13659   1.17875   1.29043   1.31644
 Alpha virt. eigenvalues --    1.31644   1.41517   1.41517   1.42398   1.55806
 Alpha virt. eigenvalues --    1.55806   1.59758   1.72308   1.73305   1.73305
 Alpha virt. eigenvalues --    1.81231   1.81231   2.17259   2.17259   2.77495
          Condensed to atoms (all electrons):
              1          2          3          4          5          6
     1  H    0.424097   0.399554  -0.032383  -0.001364   0.002353  -0.000036
     2  C    0.399554   5.177755   0.471510  -0.032383  -0.109810   0.002353
     3  C   -0.032383   0.471510   5.177755   0.399554   0.471510  -0.032383
     4  H   -0.001364  -0.032383   0.399554   0.424097  -0.032383  -0.001364
     5  C    0.002353  -0.109810   0.471510  -0.032383   5.177755   0.399554
     6  H   -0.000036   0.002353  -0.032383  -0.001364   0.399554   0.424097
     7  C   -0.000104  -0.001230  -0.109810   0.002353   0.471510  -0.032383
     8  H    0.000001  -0.000104   0.002353  -0.000036  -0.032383  -0.001364
     9  C    0.002353  -0.109810  -0.001230  -0.000104  -0.109810   0.002353
    10  H   -0.000036   0.002353  -0.000104   0.000001   0.002353  -0.000036
    11  C   -0.032383   0.471510  -0.109810   0.002353  -0.001230  -0.000104
    12  H   -0.001364  -0.032383   0.002353  -0.000036  -0.000104   0.000001
              7          8          9         10         11         12
     1  H   -0.000104   0.000001   0.002353  -0.000036  -0.032383  -0.001364
     2  C   -0.001230  -0.000104  -0.109810   0.002353   0.471510  -0.032383
     3  C   -0.109810   0.002353  -0.001230  -0.000104  -0.109810   0.002353
     4  H    0.002353  -0.000036  -0.000104   0.000001   0.002353  -0.000036
     5  C    0.471510  -0.032383  -0.109810   0.002353  -0.001230  -0.000104
     6  H   -0.032383  -0.001364   0.002353  -0.000036  -0.000104   0.000001
     7  C    5.177755   0.399554   0.471510  -0.032383  -0.109810   0.002353
     8  H    0.399554   0.424097  -0.032383  -0.001364   0.002353  -0.000036
     9  C    0.471510  -0.032383   5.177755   0.399554   0.471510  -0.032383
    10  H   -0.032383  -0.001364   0.399554   0.424097  -0.032383  -0.001364
    11  C   -0.109810   0.002353   0.471510  -0.032383   5.177755   0.399554
    12  H    0.002353  -0.000036  -0.032383  -0.001364   0.399554   0.424097
 Mulliken atomic charges:
              1
     1  H    0.239314
     2  C   -0.239314
     3  C   -0.239314
     4  H    0.239314
     5  C   -0.239314
     6  H    0.239314
     7  C   -0.239314
     8  H    0.239314
     9  C   -0.239314
    10  H    0.239314
    11  C   -0.239314
    12  H    0.239314
 Sum of Mulliken charges=   0.00000
 Atomic charges with hydrogens summed into heavy atoms:
              1
     1  H    0.000000
     2  C    0.000000
     3  C    0.000000
     4  H    0.000000
     5  C    0.000000
     6  H    0.000000
     7  C    0.000000
     8  H    0.000000
     9  C    0.000000
    10  H    0.000000
    11  C    0.000000
    12  H    0.000000
 Sum of Mulliken charges=   0.00000
 Electronic spatial extent (au):  <R**2>=   453.0868
 Charge=     0.0000 electrons
 Dipole moment (field-independent basis, Debye):
    X=     0.0000    Y=     0.0000    Z=     0.0000  Tot=     0.0000
 Quadrupole moment (field-independent basis, Debye-Ang):
   XX=   -31.4704   YY=   -31.4704   ZZ=   -40.9864
   XY=     0.0000   XZ=     0.0000   YZ=     0.0000
 Traceless Quadrupole moment (field-independent basis, Debye-Ang):
   XX=     3.1720   YY=     3.1720   ZZ=    -6.3440
   XY=     0.0000   XZ=     0.0000   YZ=     0.0000
 Octapole moment (field-independent basis, Debye-Ang**2):
  XXX=     0.0000  YYY=     0.0000  ZZZ=     0.0000  XYY=     0.0000
  XXY=     0.0000  XXZ=     0.0000  XZZ=     0.0000  YZZ=     0.0000
  YYZ=     0.0000  XYZ=     0.0000
 Hexadecapole moment (field-independent basis, Debye-Ang**3):
 XXXX=  -257.1204 YYYY=  -257.1204 ZZZZ=   -43.7275 XXXY=     0.0000
 XXXZ=     0.0000 YYYX=     0.0000 YYYZ=     0.0000 ZZZX=     0.0000
 ZZZY=     0.0000 XXYY=   -85.7068 XXZZ=   -61.7288 YYZZ=   -61.7288
 XXYZ=     0.0000 YYXZ=     0.0000 ZZXY=     0.0000
 N-N= 2.050986500017D+02 E-N=-9.435980862223D+02  KE= 2.290246098901D+02
 Symmetry AG   KE= 7.393320397301D+01
 Symmetry B1G  KE= 3.739413054563D+01
 Symmetry B2G  KE= 2.068581398573D+00
 Symmetry B3G  KE= 2.068581398573D+00
 Symmetry AU   KE= 3.012757398098D-16
 Symmetry B1U  KE= 1.748795690151D+00
 Symmetry B2U  KE= 7.160713563589D+01
 Symmetry B3U  KE= 4.020418124826D+01
 Final structure in terms of initial Z-matrix:
 H
 C,1,r2
 C,2,r3,1,a3
 H,3,r2,2,a3,1,d4,0
 C,3,r3,2,a3,1,d5,0
 H,5,r2,3,a3,2,d5,0
 C,5,r3,3,a3,2,d4,0
 H,7,r2,5,a3,3,d5,0
 C,7,r3,5,a3,3,d4,0
 H,9,r2,7,a3,5,d5,0
 C,9,r3,7,a3,5,d4,0
 H,11,r2,9,a3,7,d5,0
      Variables:
 r2=1.07201707
 r3=1.38470971
 a3=120.
 d4=0.
 d5=180.
 1|1|UNPC-UNK|FOpt|RHF|3-21G|C6H6|PCUSER|20-May-2009|0||# HF/3-21G opt|
 |_Benzene||0,1|H,0.,0.,0.0290732178|C,0.,0.,1.101090291|C,1.1991937848
 ,0.,1.7934451455|H,2.1275878035,0.,1.2574366089|C,1.1991937848,0.,3.17
 81548545|H,2.1275878035,0.,3.7141633911|C,0.,0.,3.870509709|H,0.,0.,4.
 9425267822|C,-1.1991937848,0.,3.1781548545|H,-2.1275878035,0.,3.714163
 3911|C,-1.1991937848,0.,1.7934451455|H,-2.1275878035,0.,1.2574366089||
 Version=IA32W-G03RevE.01|State=1-A1G|HF=-229.4194453|RMSD=8.682e-009|R
 MSF=9.550e-005|Thermal=0.|Dipole=0.,0.,0.|PG=D06H [3C2'(H1C1.C1H1)]||@


 LOGIC IS A SYSTEMATIC METHOD OF COMING TO THE
 WRONG CONCLUSION WITH CONFIDENCE.
 Job cpu time:  0 days  0 hours  0 minutes  7.0 seconds.
 File lengths (MBytes):  RWF=     16 Int=      0 D2E=      0 Chk=      7 Scr=      1
 Normal termination of Gaussian 03 at Wed May 20 12:29:08 2009.
