 Entering Link 1 = C:\G03W\l1.exe PID=      3836.
  
 Copyright (c) 1988,1990,1992,1993,1995,1998,2003, Gaussian, Inc.
                  All Rights Reserved.
  
 This is the Gaussian(R) 03 program.  It is based on the
 the Gaussian(R) 98 system (copyright 1998, Gaussian, Inc.),
 the Gaussian(R) 94 system (copyright 1995, Gaussian, Inc.),
 the Gaussian 92(TM) system (copyright 1992, Gaussian, Inc.),
 the Gaussian 90(TM) system (copyright 1990, Gaussian, Inc.),
 the Gaussian 88(TM) system (copyright 1988, Gaussian, Inc.),
 the Gaussian 86(TM) system (copyright 1986, Carnegie Mellon
 University), and the Gaussian 82(TM) system (copyright 1983,
 Carnegie Mellon University). Gaussian is a federally registered
 trademark of Gaussian, Inc.
  
 This software contains proprietary and confidential information,
 including trade secrets, belonging to Gaussian, Inc.
  
 This software is provided under written license and may be
 used, copied, transmitted, or stored only in accord with that
 written license.
  
 The following legend is applicable only to US Government
 contracts under DFARS:
  
                    RESTRICTED RIGHTS LEGEND
  
 Use, duplication or disclosure by the US Government is subject
 to restrictions as set forth in subparagraph (c)(1)(ii) of the
 Rights in Technical Data and Computer Software clause at DFARS
 252.227-7013.
  
 Gaussian, Inc.
 Carnegie Office Park, Building 6, Pittsburgh, PA 15106 USA
  
 The following legend is applicable only to US Government
 contracts under FAR:
  
                    RESTRICTED RIGHTS LEGEND
  
 Use, reproduction and disclosure by the US Government is subject
 to restrictions as set forth in subparagraph (c) of the
 Commercial Computer Software - Restricted Rights clause at FAR
 52.227-19.
  
 Gaussian, Inc.
 Carnegie Office Park, Building 6, Pittsburgh, PA 15106 USA
  
  
 ---------------------------------------------------------------
 Warning -- This program may not be used in any manner that
 competes with the business of Gaussian, Inc. or will provide
 assistance to any competitor of Gaussian, Inc.  The licensee
 of this program is prohibited from giving any competitor of
 Gaussian, Inc. access to this program.  By using this program,
 the user acknowledges that Gaussian, Inc. is engaged in the
 business of creating and licensing software in the field of
 computational chemistry and represents and warrants to the
 licensee that it is not a competitor of Gaussian, Inc. and that
 it will not use this program in any manner prohibited above.
 ---------------------------------------------------------------
  

 Cite this work as:
 Gaussian 03, Revision B.03,
 M. J. Frisch, G. W. Trucks, H. B. Schlegel, G. E. Scuseria, 
 M. A. Robb, J. R. Cheeseman, J. A. Montgomery, Jr., T. Vreven, 
 K. N. Kudin, J. C. Burant, J. M. Millam, S. S. Iyengar, J. Tomasi, 
 V. Barone, B. Mennucci, M. Cossi, G. Scalmani, N. Rega, 
 G. A. Petersson, H. Nakatsuji, M. Hada, M. Ehara, K. Toyota, 
 R. Fukuda, J. Hasegawa, M. Ishida, T. Nakajima, Y. Honda, O. Kitao, 
 H. Nakai, M. Klene, X. Li, J. E. Knox, H. P. Hratchian, J. B. Cross, 
 C. Adamo, J. Jaramillo, R. Gomperts, R. E. Stratmann, O. Yazyev, 
 A. J. Austin, R. Cammi, C. Pomelli, J. W. Ochterski, P. Y. Ayala, 
 K. Morokuma, G. A. Voth, P. Salvador, J. J. Dannenberg, 
 V. G. Zakrzewski, S. Dapprich, A. D. Daniels, M. C. Strain, 
 O. Farkas, D. K. Malick, A. D. Rabuck, K. Raghavachari, 
 J. B. Foresman, J. V. Ortiz, Q. Cui, A. G. Baboul, S. Clifford, 
 J. Cioslowski, B. B. Stefanov, G. Liu, A. Liashenko, P. Piskorz, 
 I. Komaromi, R. L. Martin, D. J. Fox, T. Keith, M. A. Al-Laham, 
 C. Y. Peng, A. Nanayakkara, M. Challacombe, P. M. W. Gill, 
 B. Johnson, W. Chen, M. W. Wong, C. Gonzalez, and J. A. Pople, 
 Gaussian, Inc., Pittsburgh PA, 2003.
 
 *********************************************
 Gaussian 03:  x86-Win32-G03RevB.03 4-May-2003
                  20-Dec-2011 
 *********************************************
 %chk=tmp.chk
 Default route:  MaxDisk=2000MB
 ---------------
 # HF/3-21G FREQ
 ---------------
 1/10=4,30=1,38=1/1,3;
 2/17=6,18=5,40=1/2;
 3/5=5,11=9,16=1,25=1,30=1/1,2,3;
 4//1;
 5/5=2,38=5/2;
 8/6=4,10=90,11=11,27=262144000/1;
 10/13=10/2;
 11/6=2,8=1,9=11,15=111,16=1/1,2,10;
 10/6=1/2;
 6/7=2,8=2,9=2,10=2,18=1,28=1/1;
 7/8=1,10=1,25=1/1,2,3,16;
 1/10=4,30=1/3;
 99//99;
 -----
 Title
 -----
 Symbolic Z-matrix:
 Charge =  0 Multiplicity = 1
 H
 C                    1    B1
 C                    2    B2       1    A2
 H                    3    B3       2    A3       1    D3       0
 C                    3    B4       2    A4       1    D4       0
 H                    5    B5       3    A5       2    D5       0
 C                    5    B6       3    A6       2    D6       0
 H                    7    B7       5    A7       3    D7       0
 C                    7    B8       5    A8       3    D8       0
 H                    9    B9       7    A9       5    D9       0
 C                    2    B10      1    A10      3    D10      0
 H                    11   B11      2    A11      1    D11      0
       Variables:
  B1                    1.07202                  
  B2                    1.38471                  
  A2                  120.                       
  B3                    1.07202                  
  A3                  120.00002                  
  D3                    0.02562                  
  B4                    1.38471                  
  A4                  120.                       
  D4                  179.97438                  
  B5                    1.07202                  
  A5                  119.99998                  
  D5                  179.97438                  
  B6                    1.38471                  
  A6                  120.                       
  D6                    0.02562                  
  B7                    1.07202                  
  A7                  120.                       
  D7                  179.97438                  
  B8                    1.38471                  
  A8                  120.                       
  D8                    0.02562                  
  B9                    1.07202                  
  A9                  120.00002                  
  D9                  179.97438                  
  B10                   1.38471                  
  A10                 120.                       
  D10                 179.97438                  
  B11                   1.07202                  
  A11                 120.00002                  
  D11                   0.02562                  
 

 GradGradGradGradGradGradGradGradGradGradGradGradGradGradGradGradGradGrad
 Berny optimization.
 Initialization pass.
                       ----------------------------
                       !    Initial Parameters    !
                       ! (Angstroms and Degrees)  !
 ----------------------                            ----------------------
 !      Name          Value   Derivative information (Atomic Units)     !
 ------------------------------------------------------------------------
 !       B1          1.072    calculate D2E/DX2 analytically            !
 !       B2          1.3847   calculate D2E/DX2 analytically            !
 !       A2        120.0      calculate D2E/DX2 analytically            !
 !       B3          1.072    calculate D2E/DX2 analytically            !
 !       A3        120.0      calculate D2E/DX2 analytically            !
 !       D3          0.0256   calculate D2E/DX2 analytically            !
 !       B4          1.3847   calculate D2E/DX2 analytically            !
 !       A4        120.0      calculate D2E/DX2 analytically            !
 !       D4        179.9744   calculate D2E/DX2 analytically            !
 !       B5          1.072    calculate D2E/DX2 analytically            !
 !       A5        120.0      calculate D2E/DX2 analytically            !
 !       D5        179.9744   calculate D2E/DX2 analytically            !
 !       B6          1.3847   calculate D2E/DX2 analytically            !
 !       A6        120.0      calculate D2E/DX2 analytically            !
 !       D6          0.0256   calculate D2E/DX2 analytically            !
 !       B7          1.072    calculate D2E/DX2 analytically            !
 !       A7        120.0      calculate D2E/DX2 analytically            !
 !       D7        179.9744   calculate D2E/DX2 analytically            !
 !       B8          1.3847   calculate D2E/DX2 analytically            !
 !       A8        120.0      calculate D2E/DX2 analytically            !
 !       D8          0.0256   calculate D2E/DX2 analytically            !
 !       B9          1.072    calculate D2E/DX2 analytically            !
 !       A9        120.0      calculate D2E/DX2 analytically            !
 !       D9        179.9744   calculate D2E/DX2 analytically            !
 !       B10         1.3847   calculate D2E/DX2 analytically            !
 !       A10       120.0      calculate D2E/DX2 analytically            !
 !       D10       179.9744   calculate D2E/DX2 analytically            !
 !       B11         1.072    calculate D2E/DX2 analytically            !
 !       A11       120.0      calculate D2E/DX2 analytically            !
 !       D11         0.0256   calculate D2E/DX2 analytically            !
 ------------------------------------------------------------------------
 Trust Radius=3.00D-01 FncErr=1.00D-07 GrdErr=1.00D-07
 Number of steps in this run=   2 maximum allowed number of steps=   2.
 GradGradGradGradGradGradGradGradGradGradGradGradGradGradGradGradGradGrad

                          Input orientation:                          
 ---------------------------------------------------------------------
 Center     Atomic     Atomic              Coordinates (Angstroms)
 Number     Number      Type              X           Y           Z
 ---------------------------------------------------------------------
    1          1             0        0.000000    0.000000    0.000000
    2          6             0        0.000000    0.000000    1.072020
    3          6             0        1.199194    0.000000    1.764375
    4          1             0        2.127591    0.000415    1.228365
    5          6             0        1.199194    0.000536    3.149085
    6          1             0        2.127591    0.000121    3.685095
    7          6             0        0.000000    0.000536    3.841440
    8          1             0        0.000000    0.000536    4.913460
    9          6             0       -1.199194   -0.000536    3.149086
   10          1             0       -2.127590   -0.000951    3.685096
   11          6             0       -1.199194    0.000536    1.764375
   12          1             0       -2.127591    0.000536    1.228365
 ---------------------------------------------------------------------
                    Distance matrix (angstroms):
                    1          2          3          4          5
     1  H    0.000000
     2  C    1.072020   0.000000
     3  C    2.133327   1.384710   0.000000
     4  H    2.456730   2.133328   1.072020   0.000000
     5  C    3.369689   2.398388   1.384710   2.133327   0.000000
     6  H    4.255181   3.369689   2.133327   2.456729   1.072020
     7  C    3.841440   2.769420   2.398388   3.369689   1.384710
     8  H    4.913460   3.841440   3.369689   4.255181   2.133327
     9  C    3.369689   2.398388   2.769420   3.841440   2.398388
    10  H    4.255182   3.369689   3.841440   4.913460   3.369689
    11  C    2.133327   1.384710   2.398388   3.369689   2.769420
    12  H    2.456730   2.133328   3.369689   4.255181   3.841440
                    6          7          8          9         10
     6  H    0.000000
     7  C    2.133327   0.000000
     8  H    2.456730   1.072020   0.000000
     9  C    3.369689   1.384710   2.133327   0.000000
    10  H    4.255181   2.133328   2.456730   1.072020   0.000000
    11  C    3.841440   2.398388   3.369689   1.384711   2.133328
    12  H    4.913460   3.369689   4.255181   2.133328   2.456731
                   11         12
    11  C    0.000000
    12  H    1.072020   0.000000
 This structure is nearly, but not quite of a higher symmetry.
 Consider Symm=Loose if the higher symmetry is desired.
 Stoichiometry    C6H6
 Framework group  C1[X(C6H6)]
 Deg. of freedom    30
 Full point group                 C1      NOp   1
 Largest Abelian subgroup         C1      NOp   1
 Largest concise Abelian subgroup C1      NOp   1
                         Standard orientation:                         
 ---------------------------------------------------------------------
 Center     Atomic     Atomic              Coordinates (Angstroms)
 Number     Number      Type              X           Y           Z
 ---------------------------------------------------------------------
    1          1             0       -0.000042    0.000000    2.456730
    2          6             0       -0.000097    0.000000    1.384710
    3          6             0       -0.000256    1.199194    0.692355
    4          1             0        0.000092    2.127591    1.228365
    5          6             0        0.000209    1.199194   -0.692355
    6          1             0       -0.000329    2.127591   -1.228365
    7          6             0        0.000296    0.000000   -1.384710
    8          1             0        0.000241    0.000000   -2.456730
    9          6             0       -0.000618   -1.199194   -0.692355
   10          1             0       -0.000966   -2.127590   -1.228365
   11          6             0        0.000526   -1.199194    0.692355
   12          1             0        0.000648   -2.127591    1.228365
 ---------------------------------------------------------------------
 Rotational constants (GHZ):      5.7906215      5.7906200      2.8953108
 Standard basis: 3-21G (6D, 7F)
 There are    66 symmetry adapted basis functions of A   symmetry.
 Integral buffers will be    262144 words long.
 Raffenetti 1 integral format.
 Two-electron integral symmetry is turned on.
    66 basis functions,   108 primitive gaussians,    66 cartesian basis functions
    21 alpha electrons       21 beta electrons
       nuclear repulsion energy       205.0985177338 Hartrees.
 NAtoms=   12 NActive=   12 NUniq=   12 SFac= 1.00D+00 NAtFMM=   60 Big=F
 One-electron integrals computed using PRISM.
 NBasis=    66 RedAO= T  NBF=    66
 NBsUse=    66 1.00D-06 NBFU=    66
 Harris functional with IExCor=  205 diagonalized for initial guess.
 ExpMin= 1.83D-01 ExpMax= 1.72D+02 ExpMxC= 1.72D+02 IAcc=1 IRadAn=         1 AccDes= 1.00D-06
 HarFok:  IExCor= 205 AccDes= 1.00D-06 IRadAn=         1 IDoV=1
 ScaDFX=  1.000000  1.000000  1.000000  1.000000
 Initial guess orbital symmetries:
       Occupied  (A) (A) (A) (A) (A) (A) (A) (A) (A) (A) (A) (A)
                 (A) (A) (A) (A) (A) (A) (A) (A) (A)
       Virtual   (A) (A) (A) (A) (A) (A) (A) (A) (A) (A) (A) (A)
                 (A) (A) (A) (A) (A) (A) (A) (A) (A) (A) (A) (A)
                 (A) (A) (A) (A) (A) (A) (A) (A) (A) (A) (A) (A)
                 (A) (A) (A) (A) (A) (A) (A) (A) (A)
 The electronic state of the initial guess is 1-A.
 Requested convergence on RMS density matrix=1.00D-08 within 128 cycles.
 Requested convergence on MAX density matrix=1.00D-06.
 Requested convergence on             energy=1.00D-06.
 No special actions if energy rises.
 Keep R1 integrals in memory in canonical form, NReq=     3025508.
 SCF Done:  E(RHF) =  -229.419444951     A.U. after    8 cycles
             Convg  =    0.9115D-08             -V/T =  2.0017
             S**2   =   0.0000
 Range of M.O.s used for correlation:     1    66
 NBasis=    66 NAE=    21 NBE=    21 NFC=     0 NFV=     0
 NROrb=     66 NOA=    21 NOB=    21 NVA=    45 NVB=    45
          Differentiating once with respect to electric field.
                with respect to dipole field.
          Electric field/nuclear overlap derivatives assumed to be zero.
          Store integrals in memory, NReq=     2845762.
          There are   3 degrees of freedom in the 1st order CPHF.
     3 vectors were produced by pass  0.
 AX will form   3 AO Fock derivatives at one time.
     3 vectors were produced by pass  1.
     3 vectors were produced by pass  2.
     3 vectors were produced by pass  3.
     3 vectors were produced by pass  4.
     3 vectors were produced by pass  5.
     3 vectors were produced by pass  6.
     3 vectors were produced by pass  7.
     1 vectors were produced by pass  8.
     1 vectors were produced by pass  9.
 Inv2:  IOpt= 1 Iter= 1 AM= 8.59D-16 Conv= 1.00D-12.
 Inverted reduced A of dimension   26 with in-core refinement.
 End of Minotr Frequency-dependent properties file   721 does not exist.
 Symmetrizing basis deriv contribution to polar:
 IMax=3 JMax=2 DiffMx= 0.00D+00
 G2DrvN: will do   13 centers at a time, making    1 passes doing MaxLOS=1.
 FoFDir/FoFCou used for L=0 through L=1.
          Differentiating once with respect to electric field.
                with respect to dipole field.
          Differentiating once with respect to nuclear coordinates.
          Store integrals in memory, NReq=     2847418.
          There are  39 degrees of freedom in the 1st order CPHF.
    36 vectors were produced by pass  0.
 AX will form  36 AO Fock derivatives at one time.
    36 vectors were produced by pass  1.
    36 vectors were produced by pass  2.
    36 vectors were produced by pass  3.
    36 vectors were produced by pass  4.
    36 vectors were produced by pass  5.
    27 vectors were produced by pass  6.
     3 vectors were produced by pass  7.
 Inv2:  IOpt= 1 Iter= 1 AM= 3.32D-15 Conv= 1.00D-12.
 Inverted reduced A of dimension  246 with in-core refinement.
 Isotropic polarizability for W=    0.000000       48.03 Bohr**3.
 End of Minotr Frequency-dependent properties file   721 does not exist.

 **********************************************************************

            Population analysis using the SCF density.

 **********************************************************************

 Orbital symmetries:
       Occupied  (A) (A) (A) (A) (A) (A) (A) (A) (A) (A) (A) (A)
                 (A) (A) (A) (A) (A) (A) (A) (A) (A)
       Virtual   (A) (A) (A) (A) (A) (A) (A) (A) (A) (A) (A) (A)
                 (A) (A) (A) (A) (A) (A) (A) (A) (A) (A) (A) (A)
                 (A) (A) (A) (A) (A) (A) (A) (A) (A) (A) (A) (A)
                 (A) (A) (A) (A) (A) (A) (A) (A) (A)
 The electronic state is 1-A.
 Alpha  occ. eigenvalues --  -11.17550 -11.17527 -11.17527 -11.17506 -11.17506
 Alpha  occ. eigenvalues --  -11.17449  -1.15729  -1.01648  -1.01647  -0.82563
 Alpha  occ. eigenvalues --   -0.82563  -0.71990  -0.63955  -0.62488  -0.59281
 Alpha  occ. eigenvalues --   -0.59281  -0.50842  -0.49145  -0.49145  -0.33897
 Alpha  occ. eigenvalues --   -0.33897
 Alpha virt. eigenvalues --    0.15121   0.15121   0.25741   0.32454   0.32454
 Alpha virt. eigenvalues --    0.37203   0.37203   0.37542   0.37566   0.50850
 Alpha virt. eigenvalues --    0.50850   0.52423   0.52423   0.81331   0.83500
 Alpha virt. eigenvalues --    0.87045   0.90676   0.95557   1.00751   1.00751
 Alpha virt. eigenvalues --    1.05372   1.05372   1.08856   1.08856   1.10793
 Alpha virt. eigenvalues --    1.10793   1.13659   1.17875   1.29043   1.31644
 Alpha virt. eigenvalues --    1.31644   1.41517   1.41517   1.42398   1.55806
 Alpha virt. eigenvalues --    1.55806   1.59758   1.72308   1.73305   1.73305
 Alpha virt. eigenvalues --    1.81231   1.81231   2.17259   2.17259   2.77493
          Condensed to atoms (all electrons):
              1          2          3          4          5          6
     1  H    0.424097   0.399553  -0.032383  -0.001364   0.002353  -0.000036
     2  C    0.399553   5.177756   0.471510  -0.032383  -0.109810   0.002353
     3  C   -0.032383   0.471510   5.177756   0.399553   0.471510  -0.032383
     4  H   -0.001364  -0.032383   0.399553   0.424097  -0.032383  -0.001364
     5  C    0.002353  -0.109810   0.471510  -0.032383   5.177756   0.399553
     6  H   -0.000036   0.002353  -0.032383  -0.001364   0.399553   0.424097
     7  C   -0.000104  -0.001230  -0.109810   0.002353   0.471510  -0.032383
     8  H    0.000001  -0.000104   0.002353  -0.000036  -0.032383  -0.001364
     9  C    0.002353  -0.109810  -0.001230  -0.000104  -0.109810   0.002353
    10  H   -0.000036   0.002353  -0.000104   0.000001   0.002353  -0.000036
    11  C   -0.032383   0.471510  -0.109810   0.002353  -0.001230  -0.000104
    12  H   -0.001364  -0.032383   0.002353  -0.000036  -0.000104   0.000001
              7          8          9         10         11         12
     1  H   -0.000104   0.000001   0.002353  -0.000036  -0.032383  -0.001364
     2  C   -0.001230  -0.000104  -0.109810   0.002353   0.471510  -0.032383
     3  C   -0.109810   0.002353  -0.001230  -0.000104  -0.109810   0.002353
     4  H    0.002353  -0.000036  -0.000104   0.000001   0.002353  -0.000036
     5  C    0.471510  -0.032383  -0.109810   0.002353  -0.001230  -0.000104
     6  H   -0.032383  -0.001364   0.002353  -0.000036  -0.000104   0.000001
     7  C    5.177756   0.399553   0.471510  -0.032383  -0.109810   0.002353
     8  H    0.399553   0.424097  -0.032383  -0.001364   0.002353  -0.000036
     9  C    0.471510  -0.032383   5.177755   0.399553   0.471510  -0.032383
    10  H   -0.032383  -0.001364   0.399553   0.424097  -0.032383  -0.001364
    11  C   -0.109810   0.002353   0.471510  -0.032383   5.177755   0.399553
    12  H    0.002353  -0.000036  -0.032383  -0.001364   0.399553   0.424097
 Mulliken atomic charges:
              1
     1  H    0.239314
     2  C   -0.239314
     3  C   -0.239314
     4  H    0.239314
     5  C   -0.239314
     6  H    0.239314
     7  C   -0.239314
     8  H    0.239314
     9  C   -0.239314
    10  H    0.239314
    11  C   -0.239314
    12  H    0.239314
 Sum of Mulliken charges=   0.00000
 Atomic charges with hydrogens summed into heavy atoms:
              1
     1  H    0.000000
     2  C    0.000000
     3  C    0.000000
     4  H    0.000000
     5  C    0.000000
     6  H    0.000000
     7  C    0.000000
     8  H    0.000000
     9  C    0.000000
    10  H    0.000000
    11  C    0.000000
    12  H    0.000000
 Sum of Mulliken charges=   0.00000
 APT atomic charges:
              1
     1  H    0.042078
     2  C   -0.042078
     3  C   -0.042078
     4  H    0.042078
     5  C   -0.042078
     6  H    0.042078
     7  C   -0.042077
     8  H    0.042077
     9  C   -0.042077
    10  H    0.042078
    11  C   -0.042077
    12  H    0.042078
 Sum of APT charges=   0.00000
 APT Atomic charges with hydrogens summed into heavy atoms:
              1
     1  H    0.000000
     2  C    0.000000
     3  C    0.000000
     4  H    0.000000
     5  C    0.000000
     6  H    0.000000
     7  C    0.000000
     8  H    0.000000
     9  C    0.000000
    10  H    0.000000
    11  C    0.000000
    12  H    0.000000
 Sum of APT charges=   0.00000
 Electronic spatial extent (au):  <R**2>=   453.0873
 Charge=     0.0000 electrons
 Dipole moment (field-independent basis, Debye):
    X=    -0.0003    Y=     0.0000    Z=     0.0000  Tot=     0.0003
 Quadrupole moment (field-independent basis, Debye-Ang):
   XX=   -40.9864   YY=   -31.4704   ZZ=   -31.4704
   XY=     0.0001   XZ=     0.0019   YZ=     0.0000
 Traceless Quadrupole moment (field-independent basis, Debye-Ang):
   XX=    -6.3440   YY=     3.1720   ZZ=     3.1720
   XY=     0.0001   XZ=     0.0019   YZ=     0.0000
 Octapole moment (field-independent basis, Debye-Ang**2):
  XXX=    -0.0004  YYY=     0.0000  ZZZ=     0.0000  XYY=    -0.0025
  XXY=     0.0000  XXZ=     0.0000  XZZ=    -0.0002  YZZ=     0.0000
  YYZ=     0.0000  XYZ=    -0.0009
 Hexadecapole moment (field-independent basis, Debye-Ang**3):
 XXXX=   -43.7276 YYYY=  -257.1207 ZZZZ=  -257.1208 XXXY=    -0.0013
 XXXZ=    -0.0017 YYYX=    -0.0007 YYYZ=     0.0000 ZZZX=    -0.0002
 ZZZY=     0.0000 XXYY=   -61.7289 XXZZ=   -61.7289 YYZZ=   -85.7069
 XXYZ=     0.0000 YYXZ=     0.0107 ZZXY=    -0.0002
 N-N= 2.050985177338D+02 E-N=-9.435977928071D+02  KE= 2.290245761246D+02
  Exact polarizability:  14.302   0.000  64.897   0.002   0.000  64.897
 Approx polarizability:  13.842   0.000  64.034   0.000   0.000  64.034
 Full mass-weighted force constant matrix:
 Low frequencies ---   -0.0008   -0.0007   -0.0003    8.3714    8.3745    8.3804
 Low frequencies ---  466.3941  466.3945  698.2428
 Diagonal vibrational polarizability:
        6.6767545       0.3239048       0.3239017
 Diagonal vibrational hyperpolarizability:
       -0.0119484       0.0000118       0.0000075
 Harmonic frequencies (cm**-1), IR intensities (KM/Mole), Raman scattering
 activities (A**4/AMU), depolarization ratios for plane and unpolarized
 incident light, reduced masses (AMU), force constants (mDyne/A),
 and normal coordinates:
                     1                      2                      3
                     A                      A                      A
 Frequencies --   466.3941               466.3945               698.2427
 Red. masses --     2.7492                 2.7492                 6.1649
 Frc consts  --     0.3523                 0.3523                 1.7709
 IR Inten    --     0.0000                 0.0000                 0.0000
 Raman Activ --     0.0000                 0.0000                 3.5645
 Depolar (P) --     0.3981                 0.3149                 0.7500
 Depolar (U) --     0.5695                 0.4790                 0.8571
 Atom AN      X      Y      Z        X      Y      Z        X      Y      Z
   1   1     0.52   0.00   0.00     0.11   0.00   0.00     0.00   0.01   0.36
   2   6     0.22   0.00   0.00     0.05   0.00   0.00     0.00  -0.01   0.36
   3   6    -0.15   0.00   0.00     0.17   0.00   0.00     0.00  -0.24   0.02
   4   1    -0.36   0.00   0.00     0.39   0.00   0.00     0.00  -0.08  -0.26
   5   6    -0.07   0.00   0.00    -0.22   0.00   0.00     0.00  -0.21  -0.04
   6   1    -0.16   0.00   0.00    -0.50   0.00   0.00     0.00  -0.05   0.25
   7   6     0.22   0.00   0.00     0.05   0.00   0.00     0.00   0.01  -0.36
   8   1     0.52   0.00   0.00     0.11   0.00   0.00     0.00  -0.01  -0.36
   9   6    -0.15   0.00   0.00     0.17   0.00   0.00     0.00   0.24  -0.02
  10   1    -0.36   0.00   0.00     0.39   0.00   0.00     0.00   0.08   0.26
  11   6    -0.07   0.00   0.00    -0.22   0.00   0.00     0.00   0.21   0.04
  12   1    -0.16   0.00   0.00    -0.50   0.00   0.00     0.00   0.05  -0.25
                     4                      5                      6
                     A                      A                      A
 Frequencies --   698.2429               783.9766               819.7962
 Red. masses --     6.1649                 1.0848                 2.6962
 Frc consts  --     1.7709                 0.3928                 1.0676
 IR Inten    --     0.0000               152.4890                 0.0000
 Raman Activ --     3.5645                 0.0000                 0.0001
 Depolar (P) --     0.7500                 0.7355                 0.0994
 Depolar (U) --     0.8571                 0.8476                 0.1808
 Atom AN      X      Y      Z        X      Y      Z        X      Y      Z
   1   1     0.00  -0.22   0.02     0.41   0.00   0.00     0.38   0.00   0.00
   2   6     0.00   0.16   0.02    -0.03   0.00   0.00     0.16   0.00   0.00
   3   6     0.00   0.22   0.23    -0.03   0.00   0.00    -0.16   0.00   0.00
   4   1     0.00   0.32   0.05     0.41   0.00   0.00    -0.38   0.00   0.00
   5   6     0.00  -0.24   0.22    -0.03   0.00   0.00     0.16   0.00   0.00
   6   1     0.00  -0.33   0.08     0.41   0.00   0.00     0.38   0.00   0.00
   7   6     0.00  -0.16  -0.02    -0.03   0.00   0.00    -0.16   0.00   0.00
   8   1     0.00   0.22  -0.02     0.41   0.00   0.00    -0.38   0.00   0.00
   9   6     0.00  -0.22  -0.23    -0.03   0.00   0.00     0.16   0.00   0.00
  10   1     0.00  -0.32  -0.05     0.41   0.00   0.00     0.38   0.00   0.00
  11   6     0.00   0.24  -0.22    -0.03   0.00   0.00    -0.16   0.00   0.00
  12   1     0.00   0.33  -0.08     0.41   0.00   0.00    -0.38   0.00   0.00
                     7                      8                      9
                     A                      A                      A
 Frequencies --   994.8519               994.8522              1077.8482
 Red. masses --     1.2466                 1.2466                 5.9921
 Frc consts  --     0.7269                 0.7269                 4.1015
 IR Inten    --     0.0000                 0.0000                 0.0000
 Raman Activ --     5.0060                 5.0060                53.6942
 Depolar (P) --     0.7500                 0.7500                 0.1196
 Depolar (U) --     0.8571                 0.8571                 0.2137
 Atom AN      X      Y      Z        X      Y      Z        X      Y      Z
   1   1     0.03   0.00   0.00     0.57   0.00   0.00     0.00   0.00   0.30
   2   6     0.00   0.00   0.00    -0.08   0.00   0.00     0.00   0.00   0.27
   3   6     0.07   0.00   0.00    -0.05   0.00   0.00     0.00   0.24   0.14
   4   1    -0.48   0.00   0.00     0.31   0.00   0.00     0.00   0.26   0.15
   5   6     0.08   0.00   0.00     0.04   0.00   0.00     0.00   0.24  -0.14
   6   1    -0.51   0.00   0.00    -0.26   0.00   0.00     0.00   0.26  -0.15
   7   6     0.00   0.00   0.00     0.08   0.00   0.00     0.00   0.00  -0.27
   8   1    -0.03   0.00   0.00    -0.57   0.00   0.00     0.00   0.00  -0.30
   9   6    -0.07   0.00   0.00     0.05   0.00   0.00     0.00  -0.24  -0.14
  10   1     0.48   0.00   0.00    -0.31   0.00   0.00     0.00  -0.26  -0.15
  11   6    -0.08   0.00   0.00    -0.04   0.00   0.00     0.00  -0.24   0.14
  12   1     0.51   0.00   0.00     0.26   0.00   0.00     0.00  -0.26   0.15
                    10                     11                     12
                     A                      A                      A
 Frequencies --  1136.3858              1136.3865              1147.9345
 Red. masses --     1.8813                 1.8813                 6.4871
 Frc consts  --     1.4314                 1.4314                 5.0366
 IR Inten    --     3.6475                 3.6475                 0.0000
 Raman Activ --     0.0000                 0.0000                 0.0000
 Depolar (P) --     0.7491                 0.7500                 0.7500
 Depolar (U) --     0.8566                 0.8571                 0.8571
 Atom AN      X      Y      Z        X      Y      Z        X      Y      Z
   1   1     0.00   0.52   0.03     0.00   0.11  -0.14     0.00   0.00   0.29
   2   6     0.00   0.10   0.03     0.00   0.02  -0.13     0.00   0.00   0.29
   3   6     0.00  -0.05  -0.10     0.00  -0.11   0.02     0.00  -0.25  -0.14
   4   1     0.00   0.09  -0.36     0.00  -0.28   0.30     0.00  -0.25  -0.14
   5   6     0.00  -0.09   0.09     0.00   0.08   0.06     0.00   0.25  -0.14
   6   1     0.00  -0.03   0.21     0.00   0.29   0.42     0.00   0.25  -0.14
   7   6     0.00   0.10   0.03     0.00   0.02  -0.13     0.00   0.00   0.29
   8   1     0.00   0.52   0.03     0.00   0.11  -0.14     0.00   0.00   0.29
   9   6     0.00  -0.05  -0.10     0.00  -0.11   0.02     0.00  -0.25  -0.14
  10   1     0.00   0.09  -0.36     0.00  -0.28   0.30     0.00  -0.25  -0.14
  11   6     0.00  -0.09   0.09     0.00   0.08   0.06     0.00   0.25  -0.14
  12   1     0.00  -0.03   0.21     0.00   0.29   0.42     0.00   0.25  -0.14
                    13                     14                     15
                     A                      A                      A
 Frequencies --  1156.1579              1156.1584              1199.8638
 Red. masses --     1.4048                 1.4048                 1.4191
 Frc consts  --     1.1064                 1.1064                 1.2037
 IR Inten    --     0.0000                 0.0000                 0.0002
 Raman Activ --     0.0002                 0.0000                 0.0001
 Depolar (P) --     0.0437                 0.2199                 0.0128
 Depolar (U) --     0.0838                 0.3605                 0.0252
 Atom AN      X      Y      Z        X      Y      Z        X      Y      Z
   1   1     0.00   0.00   0.00    -0.57   0.00   0.00    -0.40   0.00   0.00
   2   6     0.00   0.00   0.00     0.11   0.00   0.00     0.08   0.00   0.00
   3   6     0.09   0.00   0.00    -0.06   0.00   0.00    -0.08   0.00   0.00
   4   1    -0.49   0.00   0.00     0.29   0.00   0.00     0.40   0.00   0.00
   5   6    -0.10   0.00   0.00    -0.05   0.00   0.00     0.08   0.00   0.00
   6   1     0.49   0.00   0.00     0.28   0.00   0.00    -0.40   0.00   0.00
   7   6     0.00   0.00   0.00     0.11   0.00   0.00    -0.08   0.00   0.00
   8   1     0.00   0.00   0.00    -0.57   0.00   0.00     0.40   0.00   0.00
   9   6     0.09   0.00   0.00    -0.06   0.00   0.00     0.08   0.00   0.00
  10   1    -0.49   0.00   0.00     0.29   0.00   0.00    -0.40   0.00   0.00
  11   6    -0.10   0.00   0.00    -0.05   0.00   0.00    -0.08   0.00   0.00
  12   1     0.49   0.00   0.00     0.28   0.00   0.00     0.40   0.00   0.00
                    16                     17                     18
                     A                      A                      A
 Frequencies --  1233.9687              1322.8186              1322.8190
 Red. masses --     3.3987                 1.1857                 1.1857
 Frc consts  --     3.0491                 1.2225                 1.2225
 IR Inten    --     0.0000                 0.0000                 0.0000
 Raman Activ --     0.0001                 6.2937                 6.2937
 Depolar (P) --     0.7500                 0.7500                 0.7500
 Depolar (U) --     0.8571                 0.8571                 0.8571
 Atom AN      X      Y      Z        X      Y      Z        X      Y      Z
   1   1     0.00   0.36   0.00     0.00   0.05   0.00     0.00  -0.57   0.00
   2   6     0.00   0.19   0.00     0.00   0.01   0.00     0.00  -0.07   0.00
   3   6     0.00  -0.10   0.16     0.00   0.03  -0.05     0.00   0.02  -0.03
   4   1     0.00  -0.18   0.31     0.00   0.23  -0.41     0.00   0.17  -0.28
   5   6     0.00  -0.10  -0.16     0.00   0.03   0.06     0.00  -0.02  -0.03
   6   1     0.00  -0.18  -0.31     0.00   0.26   0.45     0.00  -0.12  -0.21
   7   6     0.00   0.19   0.00     0.00  -0.01   0.00     0.00   0.07   0.00
   8   1     0.00   0.36   0.00     0.00  -0.05   0.00     0.00   0.57   0.00
   9   6     0.00  -0.10   0.16     0.00  -0.03   0.05     0.00  -0.02   0.03
  10   1     0.00  -0.18   0.31     0.00  -0.23   0.41     0.00  -0.17   0.28
  11   6     0.00  -0.10  -0.16     0.00  -0.03  -0.06     0.00   0.02   0.03
  12   1     0.00  -0.18  -0.31     0.00  -0.26  -0.45     0.00   0.12   0.21
                    19                     20                     21
                     A                      A                      A
 Frequencies --  1365.1015              1543.8526              1657.8041
 Red. masses --     1.2799                 1.2466                 1.8099
 Frc consts  --     1.4052                 1.7506                 2.9307
 IR Inten    --     0.0000                 0.0000                15.9882
 Raman Activ --     0.0000                 0.0000                 0.0000
 Depolar (P) --     0.7500                 0.7500                 0.7500
 Depolar (U) --     0.8571                 0.8571                 0.8571
 Atom AN      X      Y      Z        X      Y      Z        X      Y      Z
   1   1     0.00   0.40   0.00     0.00   0.40   0.00     0.00   0.54  -0.02
   2   6     0.00  -0.06   0.00     0.00  -0.06   0.00     0.00  -0.13  -0.01
   3   6     0.00   0.03  -0.06     0.00  -0.03   0.05     0.00   0.01   0.11
   4   1     0.00  -0.20   0.35     0.00   0.20  -0.35     0.00   0.24  -0.27
   5   6     0.00   0.03   0.06     0.00   0.03   0.05     0.00   0.04  -0.08
   6   1     0.00  -0.20  -0.35     0.00  -0.20  -0.35     0.00   0.17   0.11
   7   6     0.00  -0.06   0.00     0.00   0.06   0.00     0.00  -0.13  -0.01
   8   1     0.00   0.40   0.00     0.00  -0.40   0.00     0.00   0.54  -0.02
   9   6     0.00   0.03  -0.06     0.00   0.03  -0.05     0.00   0.01   0.11
  10   1     0.00  -0.20   0.35     0.00  -0.20   0.35     0.00   0.24  -0.27
  11   6     0.00   0.03   0.06     0.00  -0.03  -0.05     0.00   0.04  -0.08
  12   1     0.00  -0.20  -0.35     0.00   0.20   0.35     0.00   0.17   0.11
                    22                     23                     24
                     A                      A                      A
 Frequencies --  1657.8044              1763.1456              1763.1468
 Red. masses --     1.8099                 4.4094                 4.4094
 Frc consts  --     2.9308                 8.0762                 8.0763
 IR Inten    --    15.9882                 0.0000                 0.0000
 Raman Activ --     0.0000                14.1397                14.1398
 Depolar (P) --     0.7500                 0.7500                 0.7500
 Depolar (U) --     0.8571                 0.8571                 0.8571
 Atom AN      X      Y      Z        X      Y      Z        X      Y      Z
   1   1     0.00   0.10   0.10     0.00  -0.05   0.16     0.00  -0.45  -0.02
   2   6     0.00  -0.03   0.08     0.00   0.03   0.14     0.00   0.29  -0.02
   3   6     0.00   0.10  -0.06     0.00   0.05  -0.24     0.00  -0.18   0.10
   4   1     0.00  -0.15   0.39     0.00  -0.26   0.27     0.00   0.03  -0.30
   5   6     0.00  -0.09  -0.10     0.00   0.09   0.26     0.00   0.17   0.04
   6   1     0.00   0.23   0.46     0.00  -0.26  -0.33     0.00   0.04  -0.23
   7   6     0.00  -0.03   0.08     0.00  -0.03  -0.14     0.00  -0.29   0.02
   8   1     0.00   0.10   0.10     0.00   0.05  -0.16     0.00   0.45   0.02
   9   6     0.00   0.10  -0.06     0.00  -0.05   0.24     0.00   0.18  -0.10
  10   1     0.00  -0.15   0.39     0.00   0.26  -0.27     0.00  -0.03   0.30
  11   6     0.00  -0.09  -0.10     0.00  -0.09  -0.26     0.00  -0.17  -0.04
  12   1     0.00   0.23   0.46     0.00   0.26   0.33     0.00  -0.04   0.23
                    25                     26                     27
                     A                      A                      A
 Frequencies --  3345.9113              3355.8701              3355.8702
 Red. masses --     1.0853                 1.0884                 1.0884
 Frc consts  --     7.1585                 7.2218                 7.2218
 IR Inten    --     0.0000                 0.0000                 0.0000
 Raman Activ --     0.0000               119.0156               119.0155
 Depolar (P) --     0.7500                 0.7500                 0.7500
 Depolar (U) --     0.8571                 0.8571                 0.8571
 Atom AN      X      Y      Z        X      Y      Z        X      Y      Z
   1   1     0.00   0.00  -0.41     0.00   0.00   0.57     0.00   0.00  -0.03
   2   6     0.00   0.00   0.03     0.00   0.00  -0.05     0.00   0.00   0.00
   3   6     0.00  -0.03  -0.02     0.00   0.02   0.02     0.00   0.04   0.02
   4   1     0.00   0.35   0.20     0.00  -0.27  -0.16     0.00  -0.42  -0.24
   5   6     0.00   0.03  -0.02     0.00   0.02  -0.01     0.00  -0.04   0.02
   6   1     0.00  -0.35   0.20     0.00  -0.22   0.13     0.00   0.45  -0.26
   7   6     0.00   0.00   0.03     0.00   0.00   0.05     0.00   0.00   0.00
   8   1     0.00   0.00  -0.41     0.00   0.00  -0.57     0.00   0.00   0.03
   9   6     0.00  -0.03  -0.02     0.00  -0.02  -0.02     0.00  -0.04  -0.02
  10   1     0.00   0.35   0.20     0.00   0.27   0.16     0.00   0.42   0.24
  11   6     0.00   0.03  -0.02     0.00  -0.02   0.01     0.00   0.04  -0.02
  12   1     0.00  -0.35   0.20     0.00   0.22  -0.13     0.00  -0.45   0.26
                    28                     29                     30
                     A                      A                      A
 Frequencies --  3374.1550              3374.1550              3388.5854
 Red. masses --     1.0949                 1.0949                 1.1005
 Frc consts  --     7.3443                 7.3443                 7.4452
 IR Inten    --    38.6383                38.6382                 0.0000
 Raman Activ --     0.0000                 0.0000               320.0002
 Depolar (P) --     0.7500                 0.7500                 0.0990
 Depolar (U) --     0.8571                 0.8571                 0.1801
 Atom AN      X      Y      Z        X      Y      Z        X      Y      Z
   1   1     0.00   0.00   0.55     0.00  -0.01   0.16     0.00   0.00   0.41
   2   6     0.00   0.00  -0.05     0.00   0.00  -0.01     0.00   0.00  -0.04
   3   6     0.00  -0.01   0.00     0.00  -0.04  -0.03     0.00  -0.03  -0.02
   4   1     0.00   0.12   0.07     0.00   0.48   0.28     0.00   0.35   0.20
   5   6     0.00   0.03  -0.02     0.00  -0.03   0.02     0.00  -0.03   0.02
   6   1     0.00  -0.36   0.20     0.00   0.34  -0.20     0.00   0.35  -0.20
   7   6     0.00   0.00  -0.05     0.00   0.00  -0.01     0.00   0.00   0.04
   8   1     0.00   0.00   0.55     0.00  -0.01   0.16     0.00   0.00  -0.41
   9   6     0.00  -0.01   0.00     0.00  -0.04  -0.03     0.00   0.03   0.02
  10   1     0.00   0.12   0.07     0.00   0.48   0.28     0.00  -0.35  -0.20
  11   6     0.00   0.03  -0.02     0.00  -0.03   0.02     0.00   0.03  -0.02
  12   1     0.00  -0.36   0.20     0.00   0.34  -0.20     0.00  -0.35   0.20

 -------------------
 - Thermochemistry -
 -------------------
 Temperature   298.150 Kelvin.  Pressure   1.00000 Atm.
 Atom  1 has atomic number  1 and mass   1.00783
 Atom  2 has atomic number  6 and mass  12.00000
 Atom  3 has atomic number  6 and mass  12.00000
 Atom  4 has atomic number  1 and mass   1.00783
 Atom  5 has atomic number  6 and mass  12.00000
 Atom  6 has atomic number  1 and mass   1.00783
 Atom  7 has atomic number  6 and mass  12.00000
 Atom  8 has atomic number  1 and mass   1.00783
 Atom  9 has atomic number  6 and mass  12.00000
 Atom 10 has atomic number  1 and mass   1.00783
 Atom 11 has atomic number  6 and mass  12.00000
 Atom 12 has atomic number  1 and mass   1.00783
 Molecular mass:    78.04695 amu.
 Principal axes and moments of inertia in atomic units:
                           1         2         3
     EIGENVALUES --   311.66624 311.66632 623.33247
           X            0.00001   0.00000   1.00000
           Y            0.41554   0.90958  -0.00001
           Z            0.90958  -0.41554  -0.00001
 This molecule is an asymmetric top.
 Rotational symmetry number  1.
 Rotational temperatures (Kelvin)      0.27791     0.27791     0.13895
 Rotational constants (GHZ):           5.79062     5.79062     2.89531
 Zero-point vibrational energy     285659.2 (Joules/Mol)
                                   68.27420 (Kcal/Mol)
 Warning -- explicit consideration of   2 degrees of freedom as
           vibrations may cause significant error
 Vibrational temperatures:    671.04   671.04  1004.61  1004.61  1127.97
          (Kelvin)           1179.50  1431.37  1431.37  1550.78  1635.00
                             1635.00  1651.62  1663.45  1663.45  1726.33
                             1775.40  1903.24  1903.24  1964.07  2221.26
                             2385.21  2385.21  2536.77  2536.77  4814.01
                             4828.34  4828.34  4854.65  4854.65  4875.41
 
 Zero-point correction=                           0.108802 (Hartree/Particle)
 Thermal correction to Energy=                    0.112796
 Thermal correction to Enthalpy=                  0.113741
 Thermal correction to Gibbs Free Energy=         0.081524
 Sum of electronic and zero-point Energies=           -229.310643
 Sum of electronic and thermal Energies=              -229.306649
 Sum of electronic and thermal Enthalpies=            -229.305704
 Sum of electronic and thermal Free Energies=         -229.337921
 
                     E (Thermal)             CV                S
                      KCal/Mol        Cal/Mol-Kelvin    Cal/Mol-Kelvin
 Total                   70.781             14.840             67.805
 Electronic               0.000              0.000              0.000
 Translational            0.889              2.981             38.979
 Rotational               0.889              2.981             25.607
 Vibrational             69.003              8.879              3.218
 Vibration  1             0.824              1.325              0.748
 Vibration  2             0.824              1.325              0.748
                       Q            Log10(Q)             Ln(Q)
 Total Bot       0.317327D-37        -37.498493        -86.343472
 Total V=0       0.352194D+13         12.546782         28.890032
 Vib (Bot)       0.132930D-49        -49.876379       -114.844606
 Vib (Bot)  1    0.362753D+00         -0.440389         -1.014034
 Vib (Bot)  2    0.362752D+00         -0.440390         -1.014035
 Vib (V=0)       0.147535D+01          0.168897          0.388899
 Vib (V=0)  1    0.111773D+01          0.048337          0.111299
 Vib (V=0)  2    0.111773D+01          0.048337          0.111299
 Electronic      0.100000D+01          0.000000          0.000000
 Translational   0.271012D+08          7.432989         17.115090
 Rotational      0.880838D+05          4.944896         11.386044
 ***** Axes restored to original set *****
 -------------------------------------------------------------------
 Center     Atomic                   Forces (Hartrees/Bohr)
 Number     Number              X              Y              Z
 -------------------------------------------------------------------
    1          1           0.000000000    0.000004825   -0.000065741
    2          6          -0.000000244    0.000108160    0.000221945
    3          6          -0.000192081    0.000072233    0.000111152
    4          1           0.000056931   -0.000052890   -0.000032935
    5          6          -0.000192252   -0.000055152   -0.000111060
    6          1           0.000056948    0.000058398    0.000032900
    7          6           0.000000003   -0.000159373   -0.000221825
    8          1           0.000000046    0.000001150    0.000065754
    9          6           0.000192222    0.000256638   -0.000111705
   10          1          -0.000056925   -0.000002382    0.000032860
   11          6           0.000192261   -0.000239471    0.000111567
   12          1          -0.000056909    0.000007864   -0.000032912
 -------------------------------------------------------------------
 Cartesian Forces:  Max     0.000256638 RMS     0.000117456
 ------------------------------------------------------------------------
           Internal Coordinate Forces (Hartree/Bohr or radian)
 Cent Atom N1     Length/X     N2     Alpha/Y      N3      Beta/Z       J
 ------------------------------------------------------------------------
   1  H 
   2  C     1   0.000066(   1)
   3  C     2  -0.000234(   2)  1   0.000355(  12)
   4  H     3   0.000066(   3)  2   0.000000(  13)  1  -0.000093(  22)  0
   5  C     3  -0.000313(   4)  2  -0.000711(  14)  1  -0.000440(  23)  0
   6  H     5   0.000066(   5)  3   0.000000(  15)  2   0.000102(  24)  0
   7  C     5  -0.000235(   6)  3  -0.000711(  16)  2  -0.000790(  25)  0
   8  H     7   0.000066(   7)  5   0.000000(  17)  3   0.000002(  26)  0
   9  C     7  -0.000078(   8)  5  -0.000355(  18)  3  -0.000576(  27)  0
  10  H     9   0.000066(   9)  7   0.000000(  19)  5  -0.000004(  28)  0
  11  C     2  -0.000078(  10)  1   0.000355(  20)  3   0.000511(  29)  0
  12  H    11   0.000066(  11)  2   0.000000(  21)  1  -0.000014(  30)  0
 ------------------------------------------------------------------------
 Internal  Forces:  Max     0.000789676 RMS     0.000319624

 GradGradGradGradGradGradGradGradGradGradGradGradGradGradGradGradGradGrad
 Berny optimization.
 Search for a local minimum.
 Step number   1 out of a maximum of   2
 All quantities printed in internal units (Hartrees-Bohrs-Radians)
 Second derivative matrix not updated -- analytic derivatives used.
     Eigenvalues ---    0.02459   0.04404   0.06721   0.07617   0.10428
     Eigenvalues ---    0.14065   0.16460   0.19066   0.20465   0.21639
     Eigenvalues ---    0.25599   0.26344   0.26814   0.29029   0.29427
     Eigenvalues ---    0.39259   0.39440   0.39596   0.39821   0.39893
     Eigenvalues ---    0.40134   0.47649   0.48319   0.51860   0.57007
     Eigenvalues ---    0.58129   0.73319   2.64312   4.24103  29.36454
 Angle between quadratic step and forces=  66.77 degrees.
 Linear search not attempted -- first point.
 Variable       Old X    -DE/DX   Delta X   Delta X   Delta X     New X
                                 (Linear)    (Quad)   (Total)
    B1        2.02582   0.00007   0.00000   0.00017   0.00017   2.02599
    B2        2.61672  -0.00023   0.00000  -0.00027  -0.00027   2.61645
    A2        2.09440   0.00036   0.00000   0.00000   0.00000   2.09440
    B3        2.02582   0.00007   0.00000   0.00017   0.00017   2.02599
    A3        2.09440   0.00000   0.00000   0.00000   0.00000   2.09440
    D3        0.00045  -0.00009   0.00000  -0.00045  -0.00045   0.00000
    B4        2.61672  -0.00031   0.00000  -0.00027  -0.00027   2.61645
    A4        2.09440  -0.00071   0.00000   0.00000   0.00000   2.09440
    D4        3.14115  -0.00044   0.00000   0.00045   0.00045   3.14159
    B5        2.02582   0.00007   0.00000   0.00017   0.00017   2.02599
    A5        2.09439   0.00000   0.00000   0.00000   0.00000   2.09439
    D5        3.14115   0.00010   0.00000   0.00045   0.00045   3.14159
    B6        2.61672  -0.00023   0.00000  -0.00027  -0.00027   2.61645
    A6        2.09440  -0.00071   0.00000   0.00000   0.00000   2.09440
    D6        0.00045  -0.00079   0.00000  -0.00045  -0.00045   0.00000
    B7        2.02582   0.00007   0.00000   0.00017   0.00017   2.02599
    A7        2.09440   0.00000   0.00000   0.00000   0.00000   2.09440
    D7        3.14115   0.00000   0.00000   0.00045   0.00045   3.14159
    B8        2.61672  -0.00008   0.00000  -0.00027  -0.00027   2.61645
    A8        2.09440  -0.00036   0.00000   0.00000   0.00000   2.09440
    D8        0.00045  -0.00058   0.00000  -0.00045  -0.00045   0.00000
    B9        2.02582   0.00007   0.00000   0.00017   0.00017   2.02599
    A9        2.09440   0.00000   0.00000   0.00000   0.00000   2.09439
    D9        3.14115   0.00000   0.00000   0.00045   0.00045   3.14159
   B10        2.61672  -0.00008   0.00000  -0.00027  -0.00027   2.61645
   A10        2.09440   0.00036   0.00000   0.00000   0.00000   2.09439
   D10        3.14115   0.00051   0.00000   0.00045   0.00045   3.14159
   B11        2.02582   0.00007   0.00000   0.00017   0.00017   2.02599
   A11        2.09440   0.00000   0.00000   0.00000   0.00000   2.09440
   D11        0.00045  -0.00001   0.00000  -0.00045  -0.00045   0.00000
         Item               Value     Threshold  Converged?
 Maximum Force            0.000790     0.000450     NO 
 RMS     Force            0.000320     0.000300     NO 
 Maximum Displacement     0.000449     0.001800     YES
 RMS     Displacement     0.000280     0.001200     YES
 Predicted change in Energy=-5.293561D-07
 GradGradGradGradGradGradGradGradGradGradGradGradGradGradGradGradGradGrad

 1|1|UNPC-UNK|Freq|RHF|3-21G|C6H6|PCUSER|20-Dec-2011|1||# HF/3-21G FREQ
 ||Title||0,1|H|C,1,B1|C,2,B2,1,A2|H,3,B3,2,A3,1,D3,0|C,3,B4,2,A4,1,D4,
 0|H,5,B5,3,A5,2,D5,0|C,5,B6,3,A6,2,D6,0|H,7,B7,5,A7,3,D7,0|C,7,B8,5,A8
 ,3,D8,0|H,9,B9,7,A9,5,D9,0|C,2,B10,1,A10,3,D10,0|H,11,B11,2,A11,1,D11,
 0||B1=1.07202|B2=1.38471|A2=120.|B3=1.07202|A3=120.00002|D3=0.02562|B4
 =1.38471|A4=120.|D4=179.97438|B5=1.07202|A5=119.99998|D5=179.97438|B6=
 1.38471|A6=120.|D6=0.02562|B7=1.07202|A7=120.|D7=179.97438|B8=1.38471|
 A8=120.|D8=0.02562|B9=1.07202|A9=120.00002|D9=179.97438|B10=1.38471|A1
 0=120.|D10=179.97438|B11=1.07202|A11=120.00002|D11=0.02562||Version=x8
 6-Win32-G03RevB.03|State=1-A|HF=-229.419445|RMSD=9.115e-009|RMSF=1.175
 e-004|Dipole=-0.0000007,-0.0001221,0.0000002|DipoleDeriv=0.0775905,0.0
 000493,0.0000001,0.0000779,0.1556858,0.0001316,0.,-0.0000277,-0.107043
 6,-0.108872,-0.0000093,0.,-0.0000027,-0.1556858,-0.0000095,-0.0000001,
 -0.0000279,0.1383252,0.0765258,-0.0001023,-0.1070391,0.0004699,-0.1556
 857,-0.0001816,-0.1070395,0.0000841,-0.0470731,-0.060885,0.000009,0.07
 99489,-0.0002431,0.1556857,0.0000858,0.0799488,-0.0000357,0.031432,0.0
 765256,0.0000861,0.1070391,-0.0004769,-0.1556858,-0.0002239,0.1070394,
 0.0000744,-0.0470731,-0.0608849,-0.0000153,-0.0799488,0.000247,0.15568
 57,0.000051,-0.0799489,-0.0000503,0.031432,-0.108872,0.0000198,-0.0000
 002,0.0000132,-0.1556858,-0.0000243,0.0000004,0.000055,0.1383253,0.077
 5906,-0.0000667,-0.0000001,-0.0000954,0.1556857,0.0002187,0.,-0.000068
 3,-0.1070438,0.0765258,0.0002457,-0.1070392,0.0000025,-0.1556856,0.000
 0468,-0.1070392,-0.0001279,-0.0470724,-0.0608849,-0.0001603,0.0799489,
 0.0001967,0.1556858,-0.0001153,0.079949,0.000108,0.031432,0.0765257,-0
 .0001257,0.1070394,0.0001083,-0.1556857,0.000137,0.1070391,-0.0000704,
 -0.0470725,-0.0608851,0.0000697,-0.0799489,-0.0002975,0.1556857,-0.000
 1162,-0.079949,0.0000868,0.031432|Polar=64.8968047,0.0056559,14.302037
 ,-0.0000022,0.0006636,64.8967961|PolarDeriv=0.0000022,-0.0001176,0.000
 0008,-1.5154262,-0.0001472,0.0000015,0.0005716,-0.0000002,0.0016248,-0
 .0002255,-1.6582878,0.0019194,-0.2164402,0.0000835,-0.4346992,0.000001
 4,-0.0008548,-10.5250578,0.0000205,-0.0080868,-0.0000079,1.9271862,-0.
 0149902,0.0000073,-0.0056744,0.0000107,-0.0159123,-0.0022705,-3.502942
 6,-0.0097272,-1.5908278,0.0006895,0.3477255,0.0000051,-0.003366,-1.533
 7148,0.5061072,-0.0019805,-0.3011361,-0.4603949,0.0098744,2.1998134,-0
 .0075945,3.033637,-0.0036053,0.0018692,-1.7514793,0.0007503,-2.2193885
 ,0.003261,0.1738688,-0.8468609,0.013361,0.6570699,7.5392838,0.0027184,
 0.3764608,-3.4868732,-0.0009691,1.7631238,0.0037648,1.4361216,0.003465
 4,-0.0015538,-0.8291428,0.0015394,-2.8373791,-0.0009511,-0.2173496,2.8
 880777,0.0015671,-2.5333647,0.5061199,0.0041387,-0.3011358,0.4603903,0
 .0106544,2.1998105,0.0067671,3.0336418,0.0026959,0.0018085,1.7514804,-
 0.0017751,2.2193849,0.0000151,-0.1738685,-0.8468502,-0.0136622,-0.6570
 7,7.5392824,-0.0025017,0.3764606,3.4868726,-0.0008287,1.7631237,-0.003
 6531,1.4361204,-0.0033128,-0.0016681,0.8291416,-0.0016157,2.8373803,-0
 .0009308,0.2173496,2.8880785,-0.0014499,2.5333655,0.0000012,0.0048986,
 -0.0000119,-1.9271814,-0.0162042,0.0000082,0.0066996,0.000006,0.022131
 2,-0.0034846,3.5029395,0.0145217,1.590826,0.0011229,-0.3477257,0.00000
 18,0.004085,1.5337104,0.0000022,0.0001209,0.0000016,1.5154267,-0.00017
 92,0.0000016,-0.000565,0.0000005,-0.002299,-0.0002574,1.6582879,-0.002
 7397,0.2164396,0.0000347,0.4346992,0.0000012,0.0014168,10.5250584,-0.5
 061167,-0.0045086,0.3011509,0.4603833,0.0045314,-2.1998186,-0.017249,-
 3.0336485,-0.0352781,0.0038971,1.7514794,-0.0139594,2.2193607,-0.00050
 9,-0.1738678,0.8468561,0.0026859,-0.6570992,-7.5392834,-0.0034382,-0.3
 764632,3.4868755,0.0017089,-1.7631248,0.0008784,-1.4361189,0.0025306,-
 0.0006129,0.8291438,0.0008026,2.8373812,0.0015803,0.2173518,-2.8880813
 ,-0.0014297,2.5333677,-0.5061305,0.0076624,0.30114,-0.4603842,0.005888
 7,-2.199824,0.0189083,-3.0336529,0.0317903,0.0044137,-1.7514769,0.0119
 51,-2.219355,-0.004825,0.1738666,0.8468512,-0.0026084,0.6571002,-7.539
 2888,0.0010942,-0.3764597,-3.4868748,0.0006608,-1.7631226,-0.0028536,-
 1.4361175,-0.0038307,-0.0019156,-0.8291431,-0.0016673,-2.837382,0.0004
 29,-0.2173507,-2.8880805,0.0002554,-2.5333656|HyperPolar=-0.0001268,-0
 .011055,-0.000002,0.0020193,0.0000006,0.0004662,0.0000078,-0.0000555,-
 0.0005506,0.0000383|PG=C01 [X(C6H6)]|NImag=0||0.07269234,-0.00001174,0
 .03376571,0.,0.00000133,0.39915099,-0.07446827,0.00001966,-0.00000001,
 0.72225109,0.00001486,-0.05177203,-0.00000526,-0.00008593,0.18940749,0
 .,0.00000741,-0.37533994,0.00000030,0.00002611,0.84925232,0.00597941,-
 0.00000861,0.00442775,-0.30202481,0.00002169,-0.12337697,0.81750238,0.
 00000101,0.00673403,0.00000163,-0.00001652,-0.09255973,-0.00000453,0.0
 0008264,0.18940761,-0.03548262,-0.00000251,-0.01322837,-0.03397235,0.0
 0000393,-0.21117918,-0.05499287,0.00005493,0.75400142,0.00102882,0.000
 00276,-0.00054850,-0.02187356,-0.00000465,0.02050866,-0.30012209,-0.00
 008605,0.13028119,0.31753639,-0.00000218,-0.00533077,-0.00000002,0.000
 01444,0.00673403,0.00000459,-0.00011773,-0.05177204,0.00006735,0.00009
 611,0.03376573,0.00056435,-0.00000081,0.00101967,-0.01940168,0.0000003
 2,0.01462462,0.13028118,0.00003992,-0.14968609,-0.14136069,-0.00004386
 ,0.15430692,-0.00565369,-0.00000504,-0.00314793,0.05431102,-0.00001775
 ,-0.04093979,-0.16575639,-0.00001850,-0.04470230,0.00502071,0.00002009
 ,0.03603612,0.81750200,0.00000316,0.00873427,-0.00000104,-0.00001424,0
 .01457490,0.00000121,0.00001117,-0.09255987,-0.00009721,-0.00000393,0.
 00673404,0.00000522,-0.00006340,0.18940761,-0.00256317,0.00000608,0.00
 054042,-0.11029098,-0.00000459,-0.03300211,0.04470230,-0.00008490,-0.3
 4744732,-0.00387423,-0.00002823,-0.01226971,0.05499310,0.00006996,0.75
 400139,0.00006818,0.00000022,0.00011943,0.00146487,0.00000581,0.000961
 97,0.00502072,0.00000381,0.00387424,0.00101510,-0.00000340,-0.00055642
 ,-0.30012203,0.00008658,-0.13028124,0.31753634,-0.00000118,-0.00006506
 ,-0.00000065,0.00000302,0.00873427,-0.00000717,-0.00001789,0.00673403,
 -0.00002072,0.00000323,-0.00533077,0.00000048,0.00012233,-0.05177202,0
 .00005833,-0.00009426,0.03376572,-0.00152991,-0.00000022,-0.00074616,0
 .00154672,-0.00000247,-0.00657815,-0.03603610,0.00000360,-0.01226969,0
 .00055642,0.00000061,0.00103340,-0.13028123,0.00003601,-0.14968614,0.1
 4136072,-0.00004122,0.15430697,-0.00115861,0.00001085,0.,-0.11037975,0
 .00002030,-0.00000005,0.05431104,0.00002147,0.11029096,0.00146488,-0.0
 0001026,-0.00154672,-0.30202451,0.00003310,0.03397213,-0.02187358,-0.0
 0002062,0.01940169,0.72225108,0.00000102,-0.00078977,0.00000094,-0.000
 04233,-0.01181250,-0.00000084,0.00002710,0.01457490,0.00001964,-0.0000
 0528,0.00873426,-0.00000294,-0.00002624,-0.09255969,-0.00001007,0.0000
 0264,0.00673403,0.00000141,0.00020506,0.18940746,0.,0.00000346,0.00111
 115,0.00000008,-0.00000115,-0.00275409,0.04093977,-0.00000204,-0.03300
 212,-0.00096197,-0.00000691,-0.00657815,0.12337678,-0.00000247,-0.2111
 7908,-0.02050866,0.00000663,0.01462462,0.00000008,0.00008398,0.8492522
 7,0.00008911,0.00000086,0.,-0.00115861,-0.00000110,0.,-0.00565370,-0.0
 0000425,0.00256317,0.00006818,0.00000110,0.00152991,0.00597941,-0.0000
 0140,0.03548261,0.00102883,0.00000310,-0.00056434,-0.07446826,-0.00001
 994,0.,0.07269234,-0.00000054,-0.00134888,0.00000003,-0.00001094,-0.00
 078978,0.00000523,0.00000650,0.00873428,0.00000718,-0.00000025,-0.0000
 6506,-0.00000026,0.00001116,0.00673402,-0.00000174,-0.00000296,-0.0053
 3076,-0.00000098,-0.00002473,-0.05177202,0.00001325,0.00002045,0.03376
 570,0.,0.00000008,-0.00009334,0.,0.00000107,0.00111115,0.00314793,-0.0
 0000164,0.00054042,-0.00011943,-0.00000066,-0.00074616,-0.00442775,0.0
 0000213,-0.01322836,0.00054850,0.00000013,0.00101967,0.,-0.00001249,-0
 .37533993,0.00000003,0.00000790,0.39915099,-0.00565369,0.,0.00314793,0
 .05431107,-0.00003267,0.04093978,-0.02966052,-0.00000431,-0.04660328,0
 .00054371,-0.00000006,-0.00098284,-0.07665865,-0.00004442,0.03467562,-
 0.00348109,-0.00000034,0.00381753,-0.30202466,-0.00017916,-0.12337690,
 0.00597938,0.00000567,0.00442772,0.81750220,0.00000300,0.00873430,-0.0
 0000265,0.00002464,0.01457462,-0.00002106,0.00000328,-0.01181256,0.000
 00194,0.00000065,-0.00078976,-0.00000049,0.00000226,0.01457479,-0.0000
 1485,0.00000416,0.00873425,0.00000199,-0.00018883,-0.09255953,-0.00007
 276,0.00000427,0.00673403,0.00000689,0.00031185,0.18940737,0.00256317,
 -0.00000774,0.00054042,0.11029092,0.00004325,-0.03300203,-0.04660324,-
 0.00002091,-0.08347326,-0.00098284,0.00000012,-0.00059118,-0.03467554,
 0.00000276,0.09796755,0.00440228,0.00000892,-0.00163219,-0.03397216,-0
 .00009858,-0.21117910,-0.03548264,-0.00001879,-0.01322839,-0.05499307,
 -0.00017270,0.75399881,0.00006819,-0.00000061,-0.00011943,0.00146486,-
 0.00000526,-0.00096198,0.00054371,0.00000158,-0.00098284,-0.00004773,0
 .00000062,0.00007900,-0.00348109,-0.00000916,-0.00440227,-0.00115333,0
 .00000013,0.00082467,-0.02187354,-0.00000543,0.02050867,0.00102882,0.0
 0000282,-0.00054850,-0.30012203,-0.00012492,0.13028125,0.31753628,-0.0
 0000221,-0.00006506,0.00000053,0.00000200,0.00873428,0.00001111,0.0000
 0880,-0.00078979,0.00000121,0.00000047,-0.00134887,0.00000026,-0.00000
 353,0.00873428,-0.00001585,-0.00000171,-0.00006506,0.00000177,-0.00003
 422,0.00673398,0.00000881,0.00000291,-0.00533077,0.00000065,-0.0000850
 2,-0.05177193,0.00005948,0.00013343,0.03376573,0.00152991,-0.00000177,
 -0.00074616,-0.00154673,0.00000878,-0.00657814,-0.00098284,-0.00000040
 ,-0.00059117,0.00007900,-0.00000030,0.00004349,-0.00381752,0.00000042,
 -0.00163219,-0.00082467,0.00000054,0.00047535,-0.01940168,-0.00000819,
 0.01462462,0.00056434,-0.00000153,0.00101968,0.13028130,0.00007531,-0.
 14968619,-0.14136074,-0.00007740,0.15430695,0.00597940,-0.00000856,-0.
 00442773,-0.30202438,0.00009005,0.12337674,-0.07665868,0.00001585,-0.0
 3467559,-0.00348109,0.00000086,-0.00381753,-0.02966051,0.00000390,0.04
 660329,0.00054371,0.00000238,0.00098284,0.05431104,0.00004109,-0.04093
 982,-0.00565369,-0.00000789,-0.00314793,-0.16575646,-0.00003579,-0.044
 70238,0.00502075,-0.00002103,0.03603605,0.81750206,-0.00000422,0.00673
 402,0.00000442,0.00007859,-0.09255953,-0.00001965,-0.00001449,0.014574
 84,-0.00002029,-0.00000374,0.00873425,0.00000137,-0.00001085,-0.011812
 54,0.00001922,-0.00000028,-0.00078976,-0.00000082,-0.00001411,0.014574
 60,-0.00004261,-0.00000834,0.00873430,-0.00000466,0.00001040,-0.092559
 54,0.00019856,0.00000392,0.00673395,0.00000664,-0.00005023,0.18940730,
 0.03548261,-0.00000370,-0.01322837,0.03397205,-0.00006939,-0.21117908,
 0.03467557,0.00001284,0.09796755,-0.00440228,0.00000736,-0.00163218,0.
 04660322,-0.00001736,-0.08347328,0.00098284,-0.00000487,-0.00059118,-0
 .11029098,0.00001816,-0.03300205,-0.00256317,-0.00000780,0.00054042,0.
 04470230,0.00020623,-0.34744478,-0.00387426,0.00001141,-0.01226965,0.0
 5499330,-0.00016314,0.75399867,0.00102882,0.00000022,0.00054850,-0.021
 87354,-0.00000535,-0.02050866,-0.00348109,0.00000328,0.00440228,-0.001
 15333,0.00000040,-0.00082467,0.00054371,-0.00000136,0.00098284,-0.0000
 4773,0.00000011,-0.00007900,0.00146486,0.00000148,0.00096197,0.0000681
 8,0.00000071,0.00011943,0.00502073,-0.00000456,0.00387424,0.00101510,0
 .00000012,-0.00055642,-0.30012216,0.00001334,-0.13028121,0.31753644,-0
 .00000099,-0.00533077,0.00000074,0.00002761,0.00673398,-0.00000240,-0.
 00000245,0.00873428,-0.00001544,0.00000068,-0.00006505,0.00000080,-0.0
 0001052,-0.00078979,0.00000664,-0.00000061,-0.00134887,0.00000033,0.00
 000199,0.00873429,0.00001181,0.00000235,-0.00006506,0.00000058,0.00001
 807,0.00673397,0.00000563,0.00000288,-0.00533075,-0.00000211,-0.000030
 62,-0.05177189,0.00001025,-0.00000840,0.03376566,-0.00056435,-0.000001
 61,0.00101968,0.01940169,-0.00000060,0.01462462,0.00381753,0.00000150,
 -0.00163219,0.00082467,-0.00000005,0.00047536,0.00098284,0.00000037,-0
 .00059117,-0.00007900,-0.00000040,0.00004349,0.00154673,0.00000900,-0.
 00657815,-0.00152991,-0.00000249,-0.00074616,-0.03603608,-0.00000785,-
 0.01226967,0.00055642,-0.00000199,0.00103340,-0.13028124,0.00002096,-0
 .14968608,0.14136070,-0.00001683,0.15430687||0.,-0.00000482,0.00006574
 ,0.00000024,-0.00010816,-0.00022195,0.00019208,-0.00007223,-0.00011115
 ,-0.00005693,0.00005289,0.00003294,0.00019225,0.00005515,0.00011106,-0
 .00005695,-0.00005840,-0.00003290,0.,0.00015937,0.00022183,-0.00000005
 ,-0.00000115,-0.00006575,-0.00019222,-0.00025664,0.00011170,0.00005693
 ,0.00000238,-0.00003286,-0.00019226,0.00023947,-0.00011157,0.00005691,
 -0.00000786,0.00003291|||@


 "PERFECTION IS NOT AN ACCIDENT"
         --  EAGLE ELECTRIC MANUFACTURING CO.,INC. NY
 Job cpu time:  0 days  0 hours  0 minutes 29.0 seconds.
 File lengths (MBytes):  RWF=     18 Int=      0 D2E=      0 Chk=     15 Scr=      1
 Normal termination of Gaussian 03 at Tue Dec 20 17:35:45 2011.
