 Entering Link 1 = C:\G03W\l1.exe PID=      3680.
  
 Copyright (c) 1988,1990,1992,1993,1995,1998,2003,2004,2007, Gaussian, Inc.
                  All Rights Reserved.
  
 This is the Gaussian(R) 03 program.  It is based on the
 the Gaussian(R) 98 system (copyright 1998, Gaussian, Inc.),
 the Gaussian(R) 94 system (copyright 1995, Gaussian, Inc.),
 the Gaussian 92(TM) system (copyright 1992, Gaussian, Inc.),
 the Gaussian 90(TM) system (copyright 1990, Gaussian, Inc.),
 the Gaussian 88(TM) system (copyright 1988, Gaussian, Inc.),
 the Gaussian 86(TM) system (copyright 1986, Carnegie Mellon
 University), and the Gaussian 82(TM) system (copyright 1983,
 Carnegie Mellon University). Gaussian is a federally registered
 trademark of Gaussian, Inc.
  
 This software contains proprietary and confidential information,
 including trade secrets, belonging to Gaussian, Inc.
  
 This software is provided under written license and may be
 used, copied, transmitted, or stored only in accord with that
 written license.
  
 The following legend is applicable only to US Government
 contracts under FAR:
  
                    RESTRICTED RIGHTS LEGEND
  
 Use, reproduction and disclosure by the US Government is
 subject to restrictions as set forth in subparagraphs (a)
 and (c) of the Commercial Computer Software - Restricted
 Rights clause in FAR 52.227-19.
  
 Gaussian, Inc.
 340 Quinnipiac St., Bldg. 40, Wallingford CT 06492
  
  
 ---------------------------------------------------------------
 Warning -- This program may not be used in any manner that
 competes with the business of Gaussian, Inc. or will provide
 assistance to any competitor of Gaussian, Inc.  The licensee
 of this program is prohibited from giving any competitor of
 Gaussian, Inc. access to this program.  By using this program,
 the user acknowledges that Gaussian, Inc. is engaged in the
 business of creating and licensing software in the field of
 computational chemistry and represents and warrants to the
 licensee that it is not a competitor of Gaussian, Inc. and that
 it will not use this program in any manner prohibited above.
 ---------------------------------------------------------------
  

 Cite this work as:
 Gaussian 03, Revision E.01,
 M. J. Frisch, G. W. Trucks, H. B. Schlegel, G. E. Scuseria, 
 M. A. Robb, J. R. Cheeseman, J. A. Montgomery, Jr., T. Vreven, 
 K. N. Kudin, J. C. Burant, J. M. Millam, S. S. Iyengar, J. Tomasi, 
 V. Barone, B. Mennucci, M. Cossi, G. Scalmani, N. Rega, 
 G. A. Petersson, H. Nakatsuji, M. Hada, M. Ehara, K. Toyota, 
 R. Fukuda, J. Hasegawa, M. Ishida, T. Nakajima, Y. Honda, O. Kitao, 
 H. Nakai, M. Klene, X. Li, J. E. Knox, H. P. Hratchian, J. B. Cross, 
 V. Bakken, C. Adamo, J. Jaramillo, R. Gomperts, R. E. Stratmann, 
 O. Yazyev, A. J. Austin, R. Cammi, C. Pomelli, J. W. Ochterski, 
 P. Y. Ayala, K. Morokuma, G. A. Voth, P. Salvador, J. J. Dannenberg, 
 V. G. Zakrzewski, S. Dapprich, A. D. Daniels, M. C. Strain, 
 O. Farkas, D. K. Malick, A. D. Rabuck, K. Raghavachari, 
 J. B. Foresman, J. V. Ortiz, Q. Cui, A. G. Baboul, S. Clifford, 
 J. Cioslowski, B. B. Stefanov, G. Liu, A. Liashenko, P. Piskorz, 
 I. Komaromi, R. L. Martin, D. J. Fox, T. Keith, M. A. Al-Laham, 
 C. Y. Peng, A. Nanayakkara, M. Challacombe, P. M. W. Gill, 
 B. Johnson, W. Chen, M. W. Wong, C. Gonzalez, and J. A. Pople, 
 Gaussian, Inc., Wallingford CT, 2004.
 
 ******************************************
 Gaussian 03:  IA32W-G03RevE.01 11-Sep-2007
                29-May-2009 
 ******************************************
 %chk=benzene.chk
 -----------------
 # B3LYP/3-21G opt
 -----------------
 1/14=-1,18=20,26=3,38=1/1,3;
 2/9=110,17=6,18=5,40=1/2;
 3/5=5,11=2,16=1,25=1,30=1,74=-5/1,2,3;
 4//1;
 5/5=2,38=5/2;
 6/7=2,8=2,9=2,10=2,28=1/1;
 7//1,2,3,16;
 1/14=-1,18=20/3(3);
 2/9=110/2;
 6/7=2,8=2,9=2,10=2,19=2,28=1/1;
 99//99;
 2/9=110/2;
 3/5=5,11=2,16=1,25=1,30=1,74=-5/1,2,3;
 4/5=5,16=3/1;
 5/5=2,38=5/2;
 7//1,2,3,16;
 1/14=-1,18=20/3(-5);
 2/9=110/2;
 6/7=2,8=2,9=2,10=2,19=2,28=1/1;
 99/9=1/99;
 --------
 _Benzene
 --------
 Symbolic Z-matrix:
 Charge =  0 Multiplicity = 1
 H
 C                    1    r2
 C                    2    r3       1    a3
 H                    3    r2       2    a3       1    d4       0
 C                    3    r3       2    a3       1    d5       0
 H                    5    r2       3    a3       2    d5       0
 C                    5    r3       3    a3       2    d4       0
 H                    7    r2       5    a3       3    d5       0
 C                    7    r3       5    a3       3    d4       0
 H                    9    r2       7    a3       5    d5       0
 C                    9    r3       7    a3       5    d4       0
 H                    11   r2       9    a3       7    d5       0
       Variables:
  r2                    1.0947                   
  r3                    1.3911                   
  a3                  120.                       
  d4                  360.                       
  d5                  180.                       
 

 GradGradGradGradGradGradGradGradGradGradGradGradGradGradGradGradGradGrad
 Berny optimization.
 Initialization pass.
                           ----------------------------
                           !    Initial Parameters    !
                           ! (Angstroms and Degrees)  !
 --------------------------                            --------------------------
 ! Name  Definition              Value          Derivative Info.                !
 --------------------------------------------------------------------------------
 ! R1    R(1,2)                  1.0947         estimate D2E/DX2                !
 ! R2    R(2,3)                  1.3911         estimate D2E/DX2                !
 ! R3    R(2,11)                 1.3911         estimate D2E/DX2                !
 ! R4    R(3,4)                  1.0947         estimate D2E/DX2                !
 ! R5    R(3,5)                  1.3911         estimate D2E/DX2                !
 ! R6    R(5,6)                  1.0947         estimate D2E/DX2                !
 ! R7    R(5,7)                  1.3911         estimate D2E/DX2                !
 ! R8    R(7,8)                  1.0947         estimate D2E/DX2                !
 ! R9    R(7,9)                  1.3911         estimate D2E/DX2                !
 ! R10   R(9,10)                 1.0947         estimate D2E/DX2                !
 ! R11   R(9,11)                 1.3911         estimate D2E/DX2                !
 ! R12   R(11,12)                1.0947         estimate D2E/DX2                !
 ! A1    A(1,2,3)              120.0            estimate D2E/DX2                !
 ! A2    A(1,2,11)             120.0            estimate D2E/DX2                !
 ! A3    A(3,2,11)             120.0            estimate D2E/DX2                !
 ! A4    A(2,3,4)              120.0            estimate D2E/DX2                !
 ! A5    A(2,3,5)              120.0            estimate D2E/DX2                !
 ! A6    A(4,3,5)              120.0            estimate D2E/DX2                !
 ! A7    A(3,5,6)              120.0            estimate D2E/DX2                !
 ! A8    A(3,5,7)              120.0            estimate D2E/DX2                !
 ! A9    A(6,5,7)              120.0            estimate D2E/DX2                !
 ! A10   A(5,7,8)              120.0            estimate D2E/DX2                !
 ! A11   A(5,7,9)              120.0            estimate D2E/DX2                !
 ! A12   A(8,7,9)              120.0            estimate D2E/DX2                !
 ! A13   A(7,9,10)             120.0            estimate D2E/DX2                !
 ! A14   A(7,9,11)             120.0            estimate D2E/DX2                !
 ! A15   A(10,9,11)            120.0            estimate D2E/DX2                !
 ! A16   A(2,11,9)             120.0            estimate D2E/DX2                !
 ! A17   A(2,11,12)            120.0            estimate D2E/DX2                !
 ! A18   A(9,11,12)            120.0            estimate D2E/DX2                !
 ! D1    D(1,2,3,4)              0.0            estimate D2E/DX2                !
 ! D2    D(1,2,3,5)            180.0            estimate D2E/DX2                !
 ! D3    D(11,2,3,4)           180.0            estimate D2E/DX2                !
 ! D4    D(11,2,3,5)             0.0            estimate D2E/DX2                !
 ! D5    D(1,2,11,9)           180.0            estimate D2E/DX2                !
 ! D6    D(1,2,11,12)            0.0            estimate D2E/DX2                !
 ! D7    D(3,2,11,9)             0.0            estimate D2E/DX2                !
 ! D8    D(3,2,11,12)          180.0            estimate D2E/DX2                !
 ! D9    D(2,3,5,6)            180.0            estimate D2E/DX2                !
 ! D10   D(2,3,5,7)              0.0            estimate D2E/DX2                !
 ! D11   D(4,3,5,6)              0.0            estimate D2E/DX2                !
 ! D12   D(4,3,5,7)            180.0            estimate D2E/DX2                !
 ! D13   D(3,5,7,8)            180.0            estimate D2E/DX2                !
 ! D14   D(3,5,7,9)              0.0            estimate D2E/DX2                !
 ! D15   D(6,5,7,8)              0.0            estimate D2E/DX2                !
 ! D16   D(6,5,7,9)            180.0            estimate D2E/DX2                !
 ! D17   D(5,7,9,10)           180.0            estimate D2E/DX2                !
 ! D18   D(5,7,9,11)             0.0            estimate D2E/DX2                !
 ! D19   D(8,7,9,10)             0.0            estimate D2E/DX2                !
 ! D20   D(8,7,9,11)           180.0            estimate D2E/DX2                !
 ! D21   D(7,9,11,2)             0.0            estimate D2E/DX2                !
 ! D22   D(7,9,11,12)          180.0            estimate D2E/DX2                !
 ! D23   D(10,9,11,2)          180.0            estimate D2E/DX2                !
 ! D24   D(10,9,11,12)           0.0            estimate D2E/DX2                !
 --------------------------------------------------------------------------------
 Trust Radius=3.00D-01 FncErr=1.00D-07 GrdErr=1.00D-06
 Number of steps in this run=  64 maximum allowed number of steps= 100.
 GradGradGradGradGradGradGradGradGradGradGradGradGradGradGradGradGradGrad

                          Input orientation:                          
 ---------------------------------------------------------------------
 Center     Atomic     Atomic              Coordinates (Angstroms)
 Number     Number      Type              X           Y           Z
 ---------------------------------------------------------------------
    1          1             0        0.000000    0.000000    0.000000
    2          6             0        0.000000    0.000000    1.094700
    3          6             0        1.204728    0.000000    1.790250
    4          1             0        2.152766    0.000000    1.242900
    5          6             0        1.204728    0.000000    3.181350
    6          1             0        2.152766    0.000000    3.728700
    7          6             0        0.000000    0.000000    3.876900
    8          1             0        0.000000    0.000000    4.971600
    9          6             0       -1.204728    0.000000    3.181350
   10          1             0       -2.152766    0.000000    3.728700
   11          6             0       -1.204728    0.000000    1.790250
   12          1             0       -2.152766    0.000000    1.242900
 ---------------------------------------------------------------------
                    Distance matrix (angstroms):
                    1          2          3          4          5
     1  H    0.000000
     2  C    1.094700   0.000000
     3  C    2.157861   1.391100   0.000000
     4  H    2.485800   2.157861   1.094700   0.000000
     5  C    3.401817   2.409456   1.391100   2.157861   0.000000
     6  H    4.305532   3.401817   2.157861   2.485800   1.094700
     7  C    3.876900   2.782200   2.409456   3.401817   1.391100
     8  H    4.971600   3.876900   3.401817   4.305532   2.157861
     9  C    3.401817   2.409456   2.782200   3.876900   2.409456
    10  H    4.305532   3.401817   3.876900   4.971600   3.401817
    11  C    2.157861   1.391100   2.409456   3.401817   2.782200
    12  H    2.485800   2.157861   3.401817   4.305532   3.876900
                    6          7          8          9         10
     6  H    0.000000
     7  C    2.157861   0.000000
     8  H    2.485800   1.094700   0.000000
     9  C    3.401817   1.391100   2.157861   0.000000
    10  H    4.305532   2.157861   2.485800   1.094700   0.000000
    11  C    3.876900   2.409456   3.401817   1.391100   2.157861
    12  H    4.971600   3.401817   4.305532   2.157861   2.485800
                   11         12
    11  C    0.000000
    12  H    1.094700   0.000000
 Stoichiometry    C6H6
 Framework group  D6H[3C2'(HC.CH)]
 Deg. of freedom     2
 Full point group                 D6H
 Largest Abelian subgroup         D2H     NOp   8
 Largest concise Abelian subgroup D2      NOp   4
                         Standard orientation:                         
 ---------------------------------------------------------------------
 Center     Atomic     Atomic              Coordinates (Angstroms)
 Number     Number      Type              X           Y           Z
 ---------------------------------------------------------------------
    1          1             0        0.000000    2.485800    0.000000
    2          6             0        0.000000    1.391100    0.000000
    3          6             0        1.204728    0.695550    0.000000
    4          1             0        2.152766    1.242900    0.000000
    5          6             0        1.204728   -0.695550    0.000000
    6          1             0        2.152766   -1.242900    0.000000
    7          6             0        0.000000   -1.391100    0.000000
    8          1             0        0.000000   -2.485800    0.000000
    9          6             0       -1.204728   -0.695550    0.000000
   10          1             0       -2.152766   -1.242900    0.000000
   11          6             0       -1.204728    0.695550    0.000000
   12          1             0       -2.152766    1.242900    0.000000
 ---------------------------------------------------------------------
 Rotational constants (GHZ):      5.7202965      5.7202965      2.8601482
 Standard basis: 3-21G (6D, 7F)
 There are    16 symmetry adapted basis functions of AG  symmetry.
 There are    11 symmetry adapted basis functions of B1G symmetry.
 There are     2 symmetry adapted basis functions of B2G symmetry.
 There are     4 symmetry adapted basis functions of B3G symmetry.
 There are     2 symmetry adapted basis functions of AU  symmetry.
 There are     4 symmetry adapted basis functions of B1U symmetry.
 There are    16 symmetry adapted basis functions of B2U symmetry.
 There are    11 symmetry adapted basis functions of B3U symmetry.
 Integral buffers will be    262144 words long.
 Raffenetti 2 integral format.
 Two-electron integral symmetry is turned on.
    66 basis functions,   108 primitive gaussians,    66 cartesian basis functions
    21 alpha electrons       21 beta electrons
       nuclear repulsion energy       203.6546548248 Hartrees.
 NAtoms=   12 NActive=   12 NUniq=    2 SFac= 3.00D+00 NAtFMM=   80 NAOKFM=F Big=F
 One-electron integrals computed using PRISM.
 NBasis=    66 RedAO= T  NBF=    16    11     2     4     2     4    16    11
 NBsUse=    66 1.00D-06 NBFU=    16    11     2     4     2     4    16    11
 Harris functional with IExCor=  402 diagonalized for initial guess.
 ExpMin= 1.83D-01 ExpMax= 1.72D+02 ExpMxC= 1.72D+02 IAcc=1 IRadAn=         1 AccDes= 1.00D-06
 HarFok:  IExCor= 402 AccDes= 1.00D-06 IRadAn=         1 IDoV=1
 ScaDFX=  1.000000  1.000000  1.000000  1.000000
 Initial guess orbital symmetries:
       Occupied  (B1U) (E2G) (E2G) (E1U) (E1U) (A1G) (A1G) (E1U)
                 (E1U) (E2G) (E2G) (A1G) (B2U) (B1U) (E1U) (E1U)
                 (A2U) (E2G) (E2G) (E1G) (E1G)
       Virtual   (E2U) (E2U) (B2G) (A1G) (E1U) (E1U) (E2G) (E2G)
                 (B1U) (E2G) (E2G) (E1U) (E1U) (B1U) (A2G) (B2U)
                 (A2U) (A1G) (E2G) (E2G) (E1G) (E1G) (E1U) (E1U)
                 (E2U) (E2U) (A1G) (B2G) (B1U) (E2G) (E2G) (A2G)
                 (E1U) (E1U) (A1G) (E1U) (E1U) (B1U) (E2G) (E2G)
                 (E1U) (E1U) (E2G) (E2G) (B1U)
 The electronic state of the initial guess is 1-A1G.
 Requested convergence on RMS density matrix=1.00D-08 within 128 cycles.
 Requested convergence on MAX density matrix=1.00D-06.
 Requested convergence on             energy=1.00D-06.
 No special actions if energy rises.
 Keep R1 integrals in memory in canonical form, NReq=     4255556.
 Integral accuracy reduced to 1.0D-05 until final iterations.
 Initial convergence to 1.0D-05 achieved.  Increase integral accuracy.
 SCF Done:  E(RB+HF-LYP) =  -230.975146895     A.U. after   11 cycles
             Convg  =    0.2075D-09             -V/T =  2.0089
             S**2   =   0.0000

 **********************************************************************

            Population analysis using the SCF density.

 **********************************************************************

 Orbital symmetries:
       Occupied  (B1U) (E2G) (E2G) (E1U) (E1U) (A1G) (A1G) (E1U)
                 (E1U) (E2G) (E2G) (A1G) (B1U) (B2U) (E1U) (E1U)
                 (A2U) (E2G) (E2G) (E1G) (E1G)
       Virtual   (E2U) (E2U) (A1G) (E1U) (E1U) (B2G) (E2G) (E2G)
                 (B1U) (E2G) (E2G) (E1U) (E1U) (A2G) (B1U) (B2U)
                 (A2U) (A1G) (E2G) (E2G) (E1G) (E1G) (E1U) (E1U)
                 (E2U) (E2U) (A1G) (B2G) (B1U) (E2G) (E2G) (E1U)
                 (E1U) (A2G) (E1U) (E1U) (A1G) (B1U) (E2G) (E2G)
                 (E1U) (E1U) (E2G) (E2G) (B1U)
 The electronic state is 1-A1G.
 Alpha  occ. eigenvalues --  -10.12829 -10.12764 -10.12764 -10.12651 -10.12651
 Alpha  occ. eigenvalues --  -10.12545  -0.85911  -0.74731  -0.74731  -0.60423
 Alpha  occ. eigenvalues --   -0.60423  -0.52785  -0.45614  -0.45494  -0.42540
 Alpha  occ. eigenvalues --   -0.42540  -0.36875  -0.34498  -0.34498  -0.25226
 Alpha  occ. eigenvalues --   -0.25226
 Alpha virt. eigenvalues --    0.00643   0.00643   0.10213   0.16057   0.16057
 Alpha virt. eigenvalues --    0.16864   0.20557   0.20557   0.21034   0.32647
 Alpha virt. eigenvalues --    0.32647   0.34152   0.34152   0.58423   0.58428
 Alpha virt. eigenvalues --    0.66280   0.69478   0.69546   0.74065   0.74065
 Alpha virt. eigenvalues --    0.78687   0.78687   0.80576   0.80576   0.83266
 Alpha virt. eigenvalues --    0.83266   0.88071   0.90672   0.96684   1.00158
 Alpha virt. eigenvalues --    1.00158   1.10773   1.10773   1.11341   1.30606
 Alpha virt. eigenvalues --    1.30606   1.31998   1.45515   1.46941   1.46941
 Alpha virt. eigenvalues --    1.54756   1.54756   1.89164   1.89164   2.47717
          Condensed to atoms (all electrons):
              1          2          3          4          5          6
     1  H    0.506217   0.388985  -0.039931  -0.003831   0.003880  -0.000051
     2  C    0.388985   5.141946   0.459206  -0.039931  -0.084468   0.003880
     3  C   -0.039931   0.459206   5.141946   0.388985   0.459206  -0.039931
     4  H   -0.003831  -0.039931   0.388985   0.506217  -0.039931  -0.003831
     5  C    0.003880  -0.084468   0.459206  -0.039931   5.141946   0.388985
     6  H   -0.000051   0.003880  -0.039931  -0.003831   0.388985   0.506217
     7  C   -0.000177  -0.023289  -0.084468   0.003880   0.459206  -0.039931
     8  H    0.000002  -0.000177   0.003880  -0.000051  -0.039931  -0.003831
     9  C    0.003880  -0.084468  -0.023289  -0.000177  -0.084468   0.003880
    10  H   -0.000051   0.003880  -0.000177   0.000002   0.003880  -0.000051
    11  C   -0.039931   0.459206  -0.084468   0.003880  -0.023289  -0.000177
    12  H   -0.003831  -0.039931   0.003880  -0.000051  -0.000177   0.000002
              7          8          9         10         11         12
     1  H   -0.000177   0.000002   0.003880  -0.000051  -0.039931  -0.003831
     2  C   -0.023289  -0.000177  -0.084468   0.003880   0.459206  -0.039931
     3  C   -0.084468   0.003880  -0.023289  -0.000177  -0.084468   0.003880
     4  H    0.003880  -0.000051  -0.000177   0.000002   0.003880  -0.000051
     5  C    0.459206  -0.039931  -0.084468   0.003880  -0.023289  -0.000177
     6  H   -0.039931  -0.003831   0.003880  -0.000051  -0.000177   0.000002
     7  C    5.141946   0.388985   0.459206  -0.039931  -0.084468   0.003880
     8  H    0.388985   0.506217  -0.039931  -0.003831   0.003880  -0.000051
     9  C    0.459206  -0.039931   5.141946   0.388985   0.459206  -0.039931
    10  H   -0.039931  -0.003831   0.388985   0.506217  -0.039931  -0.003831
    11  C   -0.084468   0.003880   0.459206  -0.039931   5.141946   0.388985
    12  H    0.003880  -0.000051  -0.039931  -0.003831   0.388985   0.506217
 Mulliken atomic charges:
              1
     1  H    0.184840
     2  C   -0.184840
     3  C   -0.184840
     4  H    0.184840
     5  C   -0.184840
     6  H    0.184840
     7  C   -0.184840
     8  H    0.184840
     9  C   -0.184840
    10  H    0.184840
    11  C   -0.184840
    12  H    0.184840
 Sum of Mulliken charges=   0.00000
 Atomic charges with hydrogens summed into heavy atoms:
              1
     1  H    0.000000
     2  C    0.000000
     3  C    0.000000
     4  H    0.000000
     5  C    0.000000
     6  H    0.000000
     7  C    0.000000
     8  H    0.000000
     9  C    0.000000
    10  H    0.000000
    11  C    0.000000
    12  H    0.000000
 Sum of Mulliken charges=   0.00000
 Electronic spatial extent (au):  <R**2>=   457.3106
 Charge=     0.0000 electrons
 Dipole moment (field-independent basis, Debye):
    X=     0.0000    Y=     0.0000    Z=     0.0000  Tot=     0.0000
 Quadrupole moment (field-independent basis, Debye-Ang):
   XX=   -31.2540   YY=   -31.2540   ZZ=   -39.8918
   XY=     0.0000   XZ=     0.0000   YZ=     0.0000
 Traceless Quadrupole moment (field-independent basis, Debye-Ang):
   XX=     2.8792   YY=     2.8792   ZZ=    -5.7585
   XY=     0.0000   XZ=     0.0000   YZ=     0.0000
 Octapole moment (field-independent basis, Debye-Ang**2):
  XXX=     0.0000  YYY=     0.0000  ZZZ=     0.0000  XYY=     0.0000
  XXY=     0.0000  XXZ=     0.0000  XZZ=     0.0000  YZZ=     0.0000
  YYZ=     0.0000  XYZ=     0.0000
 Hexadecapole moment (field-independent basis, Debye-Ang**3):
 XXXX=  -261.3988 YYYY=  -261.3988 ZZZZ=   -41.4076 XXXY=     0.0000
 XXXZ=     0.0000 YYYX=     0.0000 YYYZ=     0.0000 ZZZX=     0.0000
 ZZZY=     0.0000 XXYY=   -87.1329 XXZZ=   -61.1297 YYZZ=   -61.1297
 XXYZ=     0.0000 YYXZ=     0.0000 ZZXY=     0.0000
 N-N= 2.036546548248D+02 E-N=-9.416654446784D+02  KE= 2.289306681337D+02
 Symmetry AG   KE= 7.373575754715D+01
 Symmetry B1G  KE= 3.728032304177D+01
 Symmetry B2G  KE= 2.234573464619D+00
 Symmetry B3G  KE= 2.234573464619D+00
 Symmetry AU   KE= 3.930802665188D-16
 Symmetry B1U  KE= 1.866862664520D+00
 Symmetry B2U  KE= 7.142467962653D+01
 Symmetry B3U  KE= 4.015389832447D+01
 ***** Axes restored to original set *****
 -------------------------------------------------------------------
 Center     Atomic                   Forces (Hartrees/Bohr)
 Number     Number              X              Y              Z
 -------------------------------------------------------------------
    1          1           0.000000000    0.000000000    0.006944324
    2          6           0.000000000    0.000000000   -0.012830845
    3          6           0.011111838    0.000000000   -0.006415423
    4          1          -0.006013961    0.000000000    0.003472162
    5          6           0.011111838    0.000000000    0.006415423
    6          1          -0.006013961    0.000000000   -0.003472162
    7          6           0.000000000    0.000000000    0.012830845
    8          1           0.000000000    0.000000000   -0.006944324
    9          6          -0.011111838    0.000000000    0.006415423
   10          1           0.006013961    0.000000000   -0.003472162
   11          6          -0.011111838    0.000000000   -0.006415423
   12          1           0.006013961    0.000000000    0.003472162
 -------------------------------------------------------------------
 Cartesian Forces:  Max     0.012830845 RMS     0.005956148

 GradGradGradGradGradGradGradGradGradGradGradGradGradGradGradGradGradGrad
 Berny optimization.
 Internal  Forces:  Max     0.006944324 RMS     0.003034519
 Search for a local minimum.
 Step number   1 out of a maximum of  64
 All quantities printed in internal units (Hartrees-Bohrs-Radians)
 Second derivative matrix not updated -- first step.
     Eigenvalues ---    0.02206   0.02206   0.02206   0.02206   0.02206
     Eigenvalues ---    0.02206   0.02206   0.02206   0.02206   0.16000
     Eigenvalues ---    0.16000   0.16000   0.16000   0.16000   0.16000
     Eigenvalues ---    0.22000   0.22000   0.22000   0.34275   0.34275
     Eigenvalues ---    0.34275   0.34275   0.34275   0.34275   0.42646
     Eigenvalues ---    0.42646   0.47128   0.47128   0.47128   0.47128
     Eigenvalues --- 1000.000001000.000001000.000001000.000001000.00000
     Eigenvalues --- 1000.000001000.000001000.000001000.000001000.00000
     Eigenvalues --- 1000.000001000.000001000.000001000.000001000.00000
     Eigenvalues --- 1000.000001000.000001000.000001000.000001000.00000
     Eigenvalues --- 1000.000001000.000001000.000001000.00000
 RFO step:  Lambda=-1.28099092D-03.
 Linear search not attempted -- first point.
 Iteration  1 RMS(Cart)=  0.00488646 RMS(Int)=  0.00000000
 Iteration  2 RMS(Cart)=  0.00000000 RMS(Int)=  0.00000000
 Variable       Old X    -DE/DX   Delta X   Delta X   Delta X     New X
                                 (Linear)    (Quad)   (Total)
    R1        2.06868  -0.00694   0.00000  -0.02019  -0.02019   2.04850
    R2        2.62880   0.00589   0.00000   0.01246   0.01246   2.64125
    R3        2.62880   0.00589   0.00000   0.01246   0.01246   2.64125
    R4        2.06868  -0.00694   0.00000  -0.02019  -0.02019   2.04850
    R5        2.62880   0.00589   0.00000   0.01246   0.01246   2.64125
    R6        2.06868  -0.00694   0.00000  -0.02019  -0.02019   2.04850
    R7        2.62880   0.00589   0.00000   0.01246   0.01246   2.64125
    R8        2.06868  -0.00694   0.00000  -0.02019  -0.02019   2.04850
    R9        2.62880   0.00589   0.00000   0.01246   0.01246   2.64125
   R10        2.06868  -0.00694   0.00000  -0.02019  -0.02019   2.04850
   R11        2.62880   0.00589   0.00000   0.01246   0.01246   2.64125
   R12        2.06868  -0.00694   0.00000  -0.02019  -0.02019   2.04850
    A1        2.09440   0.00000   0.00000   0.00000   0.00000   2.09440
    A2        2.09440   0.00000   0.00000   0.00000   0.00000   2.09440
    A3        2.09440   0.00000   0.00000   0.00000   0.00000   2.09440
    A4        2.09440   0.00000   0.00000   0.00000   0.00000   2.09440
    A5        2.09440   0.00000   0.00000   0.00000   0.00000   2.09440
    A6        2.09440   0.00000   0.00000   0.00000   0.00000   2.09440
    A7        2.09440   0.00000   0.00000   0.00000   0.00000   2.09440
    A8        2.09440   0.00000   0.00000   0.00000   0.00000   2.09440
    A9        2.09440   0.00000   0.00000   0.00000   0.00000   2.09440
   A10        2.09440   0.00000   0.00000   0.00000   0.00000   2.09440
   A11        2.09440   0.00000   0.00000   0.00000   0.00000   2.09440
   A12        2.09440   0.00000   0.00000   0.00000   0.00000   2.09440
   A13        2.09440   0.00000   0.00000   0.00000   0.00000   2.09440
   A14        2.09440   0.00000   0.00000   0.00000   0.00000   2.09440
   A15        2.09440   0.00000   0.00000   0.00000   0.00000   2.09440
   A16        2.09440   0.00000   0.00000   0.00000   0.00000   2.09440
   A17        2.09440   0.00000   0.00000   0.00000   0.00000   2.09440
   A18        2.09440   0.00000   0.00000   0.00000   0.00000   2.09440
    D1        0.00000   0.00000   0.00000   0.00000   0.00000   0.00000
    D2        3.14159   0.00000   0.00000   0.00000   0.00000   3.14159
    D3        3.14159   0.00000   0.00000   0.00000   0.00000   3.14159
    D4        0.00000   0.00000   0.00000   0.00000   0.00000   0.00000
    D5        3.14159   0.00000   0.00000   0.00000   0.00000   3.14159
    D6        0.00000   0.00000   0.00000   0.00000   0.00000   0.00000
    D7        0.00000   0.00000   0.00000   0.00000   0.00000   0.00000
    D8        3.14159   0.00000   0.00000   0.00000   0.00000   3.14159
    D9        3.14159   0.00000   0.00000   0.00000   0.00000   3.14159
   D10        0.00000   0.00000   0.00000   0.00000   0.00000   0.00000
   D11        0.00000   0.00000   0.00000   0.00000   0.00000   0.00000
   D12        3.14159   0.00000   0.00000   0.00000   0.00000   3.14159
   D13        3.14159   0.00000   0.00000   0.00000   0.00000   3.14159
   D14        0.00000   0.00000   0.00000   0.00000   0.00000   0.00000
   D15        0.00000   0.00000   0.00000   0.00000   0.00000   0.00000
   D16        3.14159   0.00000   0.00000   0.00000   0.00000   3.14159
   D17        3.14159   0.00000   0.00000   0.00000   0.00000   3.14159
   D18        0.00000   0.00000   0.00000   0.00000   0.00000   0.00000
   D19        0.00000   0.00000   0.00000   0.00000   0.00000   0.00000
   D20        3.14159   0.00000   0.00000   0.00000   0.00000   3.14159
   D21        0.00000   0.00000   0.00000   0.00000   0.00000   0.00000
   D22        3.14159   0.00000   0.00000   0.00000   0.00000   3.14159
   D23        3.14159   0.00000   0.00000   0.00000   0.00000   3.14159
   D24        0.00000   0.00000   0.00000   0.00000   0.00000   0.00000
         Item               Value     Threshold  Converged?
 Maximum Force            0.006944     0.000450     NO 
 RMS     Force            0.003035     0.000300     NO 
 Maximum Displacement     0.012457     0.001800     NO 
 RMS     Displacement     0.004886     0.001200     NO 
 Predicted change in Energy=-6.426575D-04
 GradGradGradGradGradGradGradGradGradGradGradGradGradGradGradGradGradGrad

                          Input orientation:                          
 ---------------------------------------------------------------------
 Center     Atomic     Atomic              Coordinates (Angstroms)
 Number     Number      Type              X           Y           Z
 ---------------------------------------------------------------------
    1          1             0        0.000000    0.000000    0.004090
    2          6             0        0.000000    0.000000    1.088108
    3          6             0        1.210437    0.000000    1.786954
    4          1             0        2.149224    0.000000    1.244945
    5          6             0        1.210437    0.000000    3.184646
    6          1             0        2.149224    0.000000    3.726655
    7          6             0        0.000000    0.000000    3.883492
    8          1             0        0.000000    0.000000    4.967510
    9          6             0       -1.210437    0.000000    3.184646
   10          1             0       -2.149224    0.000000    3.726655
   11          6             0       -1.210437    0.000000    1.786954
   12          1             0       -2.149224    0.000000    1.244945
 ---------------------------------------------------------------------
                    Distance matrix (angstroms):
                    1          2          3          4          5
     1  H    0.000000
     2  C    1.084018   0.000000
     3  C    2.154939   1.397692   0.000000
     4  H    2.481710   2.154939   1.084018   0.000000
     5  C    3.403101   2.420873   1.397692   2.154939   0.000000
     6  H    4.298448   3.403101   2.154939   2.481710   1.084018
     7  C    3.879402   2.795384   2.420873   3.403101   1.397692
     8  H    4.963421   3.879402   3.403101   4.298448   2.154939
     9  C    3.403101   2.420873   2.795384   3.879402   2.420873
    10  H    4.298448   3.403101   3.879402   4.963421   3.403101
    11  C    2.154939   1.397692   2.420873   3.403101   2.795384
    12  H    2.481710   2.154939   3.403101   4.298448   3.879402
                    6          7          8          9         10
     6  H    0.000000
     7  C    2.154939   0.000000
     8  H    2.481710   1.084018   0.000000
     9  C    3.403101   1.397692   2.154939   0.000000
    10  H    4.298448   2.154939   2.481710   1.084018   0.000000
    11  C    3.879402   2.420873   3.403101   1.397692   2.154939
    12  H    4.963421   3.403101   4.298448   2.154939   2.481710
                   11         12
    11  C    0.000000
    12  H    1.084018   0.000000
 Stoichiometry    C6H6
 Framework group  D6H[3C2'(HC.CH)]
 Deg. of freedom     2
 Full point group                 D6H
 Largest Abelian subgroup         D2H     NOp   8
 Largest concise Abelian subgroup D2      NOp   4
                         Standard orientation:                         
 ---------------------------------------------------------------------
 Center     Atomic     Atomic              Coordinates (Angstroms)
 Number     Number      Type              X           Y           Z
 ---------------------------------------------------------------------
    1          1             0        0.000000    2.481710    0.000000
    2          6             0        0.000000    1.397692    0.000000
    3          6             0        1.210437    0.698846    0.000000
    4          1             0        2.149224    1.240855    0.000000
    5          6             0        1.210437   -0.698846    0.000000
    6          1             0        2.149224   -1.240855    0.000000
    7          6             0        0.000000   -1.397692    0.000000
    8          1             0        0.000000   -2.481710    0.000000
    9          6             0       -1.210437   -0.698846    0.000000
   10          1             0       -2.149224   -1.240855    0.000000
   11          6             0       -1.210437    0.698846    0.000000
   12          1             0       -2.149224    1.240855    0.000000
 ---------------------------------------------------------------------
 Rotational constants (GHZ):      5.6816867      5.6816867      2.8408434
 Standard basis: 3-21G (6D, 7F)
 There are    16 symmetry adapted basis functions of AG  symmetry.
 There are    11 symmetry adapted basis functions of B1G symmetry.
 There are     2 symmetry adapted basis functions of B2G symmetry.
 There are     4 symmetry adapted basis functions of B3G symmetry.
 There are     2 symmetry adapted basis functions of AU  symmetry.
 There are     4 symmetry adapted basis functions of B1U symmetry.
 There are    16 symmetry adapted basis functions of B2U symmetry.
 There are    11 symmetry adapted basis functions of B3U symmetry.
 Integral buffers will be    262144 words long.
 Raffenetti 2 integral format.
 Two-electron integral symmetry is turned on.
    66 basis functions,   108 primitive gaussians,    66 cartesian basis functions
    21 alpha electrons       21 beta electrons
       nuclear repulsion energy       203.1383992513 Hartrees.
 NAtoms=   12 NActive=   12 NUniq=    2 SFac= 3.00D+00 NAtFMM=   80 NAOKFM=F Big=F
 One-electron integrals computed using PRISM.
 NBasis=    66 RedAO= T  NBF=    16    11     2     4     2     4    16    11
 NBsUse=    66 1.00D-06 NBFU=    16    11     2     4     2     4    16    11
 Initial guess read from the read-write file:
 Initial guess orbital symmetries:
       Occupied  (B1U) (E2G) (E2G) (E1U) (E1U) (A1G) (A1G) (E1U)
                 (E1U) (E2G) (E2G) (A1G) (B1U) (B2U) (E1U) (E1U)
                 (A2U) (E2G) (E2G) (E1G) (E1G)
       Virtual   (E2U) (E2U) (A1G) (E1U) (E1U) (B2G) (E2G) (E2G)
                 (B1U) (E2G) (E2G) (E1U) (E1U) (A2G) (B1U) (B2U)
                 (A2U) (A1G) (E2G) (E2G) (E1G) (E1G) (E1U) (E1U)
                 (E2U) (E2U) (A1G) (B2G) (B1U) (E2G) (E2G) (E1U)
                 (E1U) (A2G) (E1U) (E1U) (A1G) (B1U) (E2G) (E2G)
                 (E1U) (E1U) (E2G) (E2G) (B1U)
 Requested convergence on RMS density matrix=1.00D-08 within 128 cycles.
 Requested convergence on MAX density matrix=1.00D-06.
 Requested convergence on             energy=1.00D-06.
 No special actions if energy rises.
 Keep R1 integrals in memory in canonical form, NReq=     4255556.
 SCF Done:  E(RB+HF-LYP) =  -230.975772674     A.U. after    7 cycles
             Convg  =    0.7495D-09             -V/T =  2.0090
             S**2   =   0.0000
 ***** Axes restored to original set *****
 -------------------------------------------------------------------
 Center     Atomic                   Forces (Hartrees/Bohr)
 Number     Number              X              Y              Z
 -------------------------------------------------------------------
    1          1           0.000000000    0.000000000   -0.000055213
    2          6           0.000000000    0.000000000    0.000447388
    3          6          -0.000387449    0.000000000    0.000223694
    4          1           0.000047816    0.000000000   -0.000027606
    5          6          -0.000387449    0.000000000   -0.000223694
    6          1           0.000047816    0.000000000    0.000027606
    7          6           0.000000000    0.000000000   -0.000447388
    8          1           0.000000000    0.000000000    0.000055213
    9          6           0.000387449    0.000000000   -0.000223694
   10          1          -0.000047816    0.000000000    0.000027606
   11          6           0.000387449    0.000000000    0.000223694
   12          1          -0.000047816    0.000000000   -0.000027606
 -------------------------------------------------------------------
 Cartesian Forces:  Max     0.000447388 RMS     0.000184031

 GradGradGradGradGradGradGradGradGradGradGradGradGradGradGradGradGradGrad
 Berny optimization.
 Internal  Forces:  Max     0.000392175 RMS     0.000132014
 Search for a local minimum.
 Step number   2 out of a maximum of  64
 All quantities printed in internal units (Hartrees-Bohrs-Radians)
 Update second derivatives using D2CorX and points  1  2
 Trust test= 9.74D-01 RLast= 5.81D-02 DXMaxT set to 3.00D-01
     Eigenvalues ---    0.02206   0.02206   0.02206   0.02206   0.02206
     Eigenvalues ---    0.02206   0.02206   0.02206   0.02206   0.16000
     Eigenvalues ---    0.16000   0.16000   0.16000   0.16000   0.16000
     Eigenvalues ---    0.22000   0.22000   0.22000   0.34042   0.34275
     Eigenvalues ---    0.34275   0.34275   0.34275   0.34275   0.42681
     Eigenvalues ---    0.42681   0.47128   0.47128   0.47128   0.48950
     Eigenvalues --- 1000.000001000.000001000.000001000.000001000.00000
     Eigenvalues --- 1000.000001000.000001000.000001000.000001000.00000
     Eigenvalues --- 1000.000001000.000001000.000001000.000001000.00000
     Eigenvalues --- 1000.000001000.000001000.000001000.000001000.00000
     Eigenvalues --- 1000.000001000.000001000.000001000.00000
 RFO step:  Lambda=-9.48394702D-07.
 Quartic linear search produced a step of -0.02694.
 Iteration  1 RMS(Cart)=  0.00034561 RMS(Int)=  0.00000000
 Iteration  2 RMS(Cart)=  0.00000000 RMS(Int)=  0.00000000
 Variable       Old X    -DE/DX   Delta X   Delta X   Delta X     New X
                                 (Linear)    (Quad)   (Total)
    R1        2.04850   0.00006   0.00054  -0.00041   0.00013   2.04863
    R2        2.64125  -0.00039  -0.00034  -0.00046  -0.00080   2.64046
    R3        2.64125  -0.00039  -0.00034  -0.00046  -0.00080   2.64046
    R4        2.04850   0.00006   0.00054  -0.00041   0.00013   2.04863
    R5        2.64125  -0.00039  -0.00034  -0.00046  -0.00080   2.64046
    R6        2.04850   0.00006   0.00054  -0.00041   0.00013   2.04863
    R7        2.64125  -0.00039  -0.00034  -0.00046  -0.00080   2.64046
    R8        2.04850   0.00006   0.00054  -0.00041   0.00013   2.04863
    R9        2.64125  -0.00039  -0.00034  -0.00046  -0.00080   2.64046
   R10        2.04850   0.00006   0.00054  -0.00041   0.00013   2.04863
   R11        2.64125  -0.00039  -0.00034  -0.00046  -0.00080   2.64046
   R12        2.04850   0.00006   0.00054  -0.00041   0.00013   2.04863
    A1        2.09440   0.00000   0.00000   0.00000   0.00000   2.09440
    A2        2.09440   0.00000   0.00000   0.00000   0.00000   2.09440
    A3        2.09440   0.00000   0.00000   0.00000   0.00000   2.09440
    A4        2.09440   0.00000   0.00000   0.00000   0.00000   2.09440
    A5        2.09440   0.00000   0.00000   0.00000   0.00000   2.09440
    A6        2.09440   0.00000   0.00000   0.00000   0.00000   2.09440
    A7        2.09440   0.00000   0.00000   0.00000   0.00000   2.09440
    A8        2.09440   0.00000   0.00000   0.00000   0.00000   2.09440
    A9        2.09440   0.00000   0.00000   0.00000   0.00000   2.09440
   A10        2.09440   0.00000   0.00000   0.00000   0.00000   2.09440
   A11        2.09440   0.00000   0.00000   0.00000   0.00000   2.09440
   A12        2.09440   0.00000   0.00000   0.00000   0.00000   2.09440
   A13        2.09440   0.00000   0.00000   0.00000   0.00000   2.09440
   A14        2.09440   0.00000   0.00000   0.00000   0.00000   2.09440
   A15        2.09440   0.00000   0.00000   0.00000   0.00000   2.09440
   A16        2.09440   0.00000   0.00000   0.00000   0.00000   2.09440
   A17        2.09440   0.00000   0.00000   0.00000   0.00000   2.09440
   A18        2.09440   0.00000   0.00000   0.00000   0.00000   2.09440
    D1        0.00000   0.00000   0.00000   0.00000   0.00000   0.00000
    D2        3.14159   0.00000   0.00000   0.00000   0.00000   3.14159
    D3        3.14159   0.00000   0.00000   0.00000   0.00000   3.14159
    D4        0.00000   0.00000   0.00000   0.00000   0.00000   0.00000
    D5        3.14159   0.00000   0.00000   0.00000   0.00000   3.14159
    D6        0.00000   0.00000   0.00000   0.00000   0.00000   0.00000
    D7        0.00000   0.00000   0.00000   0.00000   0.00000   0.00000
    D8        3.14159   0.00000   0.00000   0.00000   0.00000   3.14159
    D9        3.14159   0.00000   0.00000   0.00000   0.00000   3.14159
   D10        0.00000   0.00000   0.00000   0.00000   0.00000   0.00000
   D11        0.00000   0.00000   0.00000   0.00000   0.00000   0.00000
   D12        3.14159   0.00000   0.00000   0.00000   0.00000   3.14159
   D13        3.14159   0.00000   0.00000   0.00000   0.00000   3.14159
   D14        0.00000   0.00000   0.00000   0.00000   0.00000   0.00000
   D15        0.00000   0.00000   0.00000   0.00000   0.00000   0.00000
   D16        3.14159   0.00000   0.00000   0.00000   0.00000   3.14159
   D17        3.14159   0.00000   0.00000   0.00000   0.00000   3.14159
   D18        0.00000   0.00000   0.00000   0.00000   0.00000   0.00000
   D19        0.00000   0.00000   0.00000   0.00000   0.00000   0.00000
   D20        3.14159   0.00000   0.00000   0.00000   0.00000   3.14159
   D21        0.00000   0.00000   0.00000   0.00000   0.00000   0.00000
   D22        3.14159   0.00000   0.00000   0.00000   0.00000   3.14159
   D23        3.14159   0.00000   0.00000   0.00000   0.00000   3.14159
   D24        0.00000   0.00000   0.00000   0.00000   0.00000   0.00000
         Item               Value     Threshold  Converged?
 Maximum Force            0.000392     0.000450     YES
 RMS     Force            0.000132     0.000300     YES
 Maximum Displacement     0.000796     0.001800     YES
 RMS     Displacement     0.000346     0.001200     YES
 Predicted change in Energy=-9.636829D-07
 Optimization completed.
    -- Stationary point found.
                           ----------------------------
                           !   Optimized Parameters   !
                           ! (Angstroms and Degrees)  !
 --------------------------                            --------------------------
 ! Name  Definition              Value          Derivative Info.                !
 --------------------------------------------------------------------------------
 ! R1    R(1,2)                  1.084          -DE/DX =    0.0001              !
 ! R2    R(2,3)                  1.3977         -DE/DX =   -0.0004              !
 ! R3    R(2,11)                 1.3977         -DE/DX =   -0.0004              !
 ! R4    R(3,4)                  1.084          -DE/DX =    0.0001              !
 ! R5    R(3,5)                  1.3977         -DE/DX =   -0.0004              !
 ! R6    R(5,6)                  1.084          -DE/DX =    0.0001              !
 ! R7    R(5,7)                  1.3977         -DE/DX =   -0.0004              !
 ! R8    R(7,8)                  1.084          -DE/DX =    0.0001              !
 ! R9    R(7,9)                  1.3977         -DE/DX =   -0.0004              !
 ! R10   R(9,10)                 1.084          -DE/DX =    0.0001              !
 ! R11   R(9,11)                 1.3977         -DE/DX =   -0.0004              !
 ! R12   R(11,12)                1.084          -DE/DX =    0.0001              !
 ! A1    A(1,2,3)              120.0            -DE/DX =    0.0                 !
 ! A2    A(1,2,11)             120.0            -DE/DX =    0.0                 !
 ! A3    A(3,2,11)             120.0            -DE/DX =    0.0                 !
 ! A4    A(2,3,4)              120.0            -DE/DX =    0.0                 !
 ! A5    A(2,3,5)              120.0            -DE/DX =    0.0                 !
 ! A6    A(4,3,5)              120.0            -DE/DX =    0.0                 !
 ! A7    A(3,5,6)              120.0            -DE/DX =    0.0                 !
 ! A8    A(3,5,7)              120.0            -DE/DX =    0.0                 !
 ! A9    A(6,5,7)              120.0            -DE/DX =    0.0                 !
 ! A10   A(5,7,8)              120.0            -DE/DX =    0.0                 !
 ! A11   A(5,7,9)              120.0            -DE/DX =    0.0                 !
 ! A12   A(8,7,9)              120.0            -DE/DX =    0.0                 !
 ! A13   A(7,9,10)             120.0            -DE/DX =    0.0                 !
 ! A14   A(7,9,11)             120.0            -DE/DX =    0.0                 !
 ! A15   A(10,9,11)            120.0            -DE/DX =    0.0                 !
 ! A16   A(2,11,9)             120.0            -DE/DX =    0.0                 !
 ! A17   A(2,11,12)            120.0            -DE/DX =    0.0                 !
 ! A18   A(9,11,12)            120.0            -DE/DX =    0.0                 !
 ! D1    D(1,2,3,4)              0.0            -DE/DX =    0.0                 !
 ! D2    D(1,2,3,5)            180.0            -DE/DX =    0.0                 !
 ! D3    D(11,2,3,4)           180.0            -DE/DX =    0.0                 !
 ! D4    D(11,2,3,5)             0.0            -DE/DX =    0.0                 !
 ! D5    D(1,2,11,9)           180.0            -DE/DX =    0.0                 !
 ! D6    D(1,2,11,12)            0.0            -DE/DX =    0.0                 !
 ! D7    D(3,2,11,9)             0.0            -DE/DX =    0.0                 !
 ! D8    D(3,2,11,12)          180.0            -DE/DX =    0.0                 !
 ! D9    D(2,3,5,6)            180.0            -DE/DX =    0.0                 !
 ! D10   D(2,3,5,7)              0.0            -DE/DX =    0.0                 !
 ! D11   D(4,3,5,6)              0.0            -DE/DX =    0.0                 !
 ! D12   D(4,3,5,7)            180.0            -DE/DX =    0.0                 !
 ! D13   D(3,5,7,8)            180.0            -DE/DX =    0.0                 !
 ! D14   D(3,5,7,9)              0.0            -DE/DX =    0.0                 !
 ! D15   D(6,5,7,8)              0.0            -DE/DX =    0.0                 !
 ! D16   D(6,5,7,9)            180.0            -DE/DX =    0.0                 !
 ! D17   D(5,7,9,10)           180.0            -DE/DX =    0.0                 !
 ! D18   D(5,7,9,11)             0.0            -DE/DX =    0.0                 !
 ! D19   D(8,7,9,10)             0.0            -DE/DX =    0.0                 !
 ! D20   D(8,7,9,11)           180.0            -DE/DX =    0.0                 !
 ! D21   D(7,9,11,2)             0.0            -DE/DX =    0.0                 !
 ! D22   D(7,9,11,12)          180.0            -DE/DX =    0.0                 !
 ! D23   D(10,9,11,2)          180.0            -DE/DX =    0.0                 !
 ! D24   D(10,9,11,12)           0.0            -DE/DX =    0.0                 !
 --------------------------------------------------------------------------------
 GradGradGradGradGradGradGradGradGradGradGradGradGradGradGradGradGradGrad

                          Input orientation:                          
 ---------------------------------------------------------------------
 Center     Atomic     Atomic              Coordinates (Angstroms)
 Number     Number      Type              X           Y           Z
 ---------------------------------------------------------------------
    1          1             0        0.000000    0.000000    0.004090
    2          6             0        0.000000    0.000000    1.088108
    3          6             0        1.210437    0.000000    1.786954
    4          1             0        2.149224    0.000000    1.244945
    5          6             0        1.210437    0.000000    3.184646
    6          1             0        2.149224    0.000000    3.726655
    7          6             0        0.000000    0.000000    3.883492
    8          1             0        0.000000    0.000000    4.967510
    9          6             0       -1.210437    0.000000    3.184646
   10          1             0       -2.149224    0.000000    3.726655
   11          6             0       -1.210437    0.000000    1.786954
   12          1             0       -2.149224    0.000000    1.244945
 ---------------------------------------------------------------------
                    Distance matrix (angstroms):
                    1          2          3          4          5
     1  H    0.000000
     2  C    1.084018   0.000000
     3  C    2.154939   1.397692   0.000000
     4  H    2.481710   2.154939   1.084018   0.000000
     5  C    3.403101   2.420873   1.397692   2.154939   0.000000
     6  H    4.298448   3.403101   2.154939   2.481710   1.084018
     7  C    3.879402   2.795384   2.420873   3.403101   1.397692
     8  H    4.963421   3.879402   3.403101   4.298448   2.154939
     9  C    3.403101   2.420873   2.795384   3.879402   2.420873
    10  H    4.298448   3.403101   3.879402   4.963421   3.403101
    11  C    2.154939   1.397692   2.420873   3.403101   2.795384
    12  H    2.481710   2.154939   3.403101   4.298448   3.879402
                    6          7          8          9         10
     6  H    0.000000
     7  C    2.154939   0.000000
     8  H    2.481710   1.084018   0.000000
     9  C    3.403101   1.397692   2.154939   0.000000
    10  H    4.298448   2.154939   2.481710   1.084018   0.000000
    11  C    3.879402   2.420873   3.403101   1.397692   2.154939
    12  H    4.963421   3.403101   4.298448   2.154939   2.481710
                   11         12
    11  C    0.000000
    12  H    1.084018   0.000000
 Stoichiometry    C6H6
 Framework group  D6H[3C2'(HC.CH)]
 Deg. of freedom     2
 Full point group                 D6H
 Largest Abelian subgroup         D2H     NOp   8
 Largest concise Abelian subgroup D2      NOp   4
                         Standard orientation:                         
 ---------------------------------------------------------------------
 Center     Atomic     Atomic              Coordinates (Angstroms)
 Number     Number      Type              X           Y           Z
 ---------------------------------------------------------------------
    1          1             0        0.000000    2.481710    0.000000
    2          6             0        0.000000    1.397692    0.000000
    3          6             0        1.210437    0.698846    0.000000
    4          1             0        2.149224    1.240855    0.000000
    5          6             0        1.210437   -0.698846    0.000000
    6          1             0        2.149224   -1.240855    0.000000
    7          6             0        0.000000   -1.397692    0.000000
    8          1             0        0.000000   -2.481710    0.000000
    9          6             0       -1.210437   -0.698846    0.000000
   10          1             0       -2.149224   -1.240855    0.000000
   11          6             0       -1.210437    0.698846    0.000000
   12          1             0       -2.149224    1.240855    0.000000
 ---------------------------------------------------------------------
 Rotational constants (GHZ):      5.6816867      5.6816867      2.8408434

 **********************************************************************

            Population analysis using the SCF density.

 **********************************************************************

 Orbital symmetries:
       Occupied  (B1U) (E2G) (E2G) (E1U) (E1U) (A1G) (A1G) (E1U)
                 (E1U) (E2G) (E2G) (A1G) (B1U) (B2U) (E1U) (E1U)
                 (A2U) (E2G) (E2G) (E1G) (E1G)
       Virtual   (E2U) (E2U) (A1G) (E1U) (E1U) (B2G) (E2G) (E2G)
                 (B1U) (E2G) (E2G) (E1U) (E1U) (B1U) (A2G) (B2U)
                 (A1G) (A2U) (E2G) (E2G) (E1G) (E1G) (E1U) (E1U)
                 (E2U) (E2U) (A1G) (B2G) (B1U) (E2G) (E2G) (A2G)
                 (E1U) (E1U) (E1U) (E1U) (A1G) (B1U) (E2G) (E2G)
                 (E1U) (E1U) (E2G) (E2G) (B1U)
 The electronic state is 1-A1G.
 Alpha  occ. eigenvalues --  -10.12841 -10.12777 -10.12777 -10.12663 -10.12663
 Alpha  occ. eigenvalues --  -10.12558  -0.85531  -0.74612  -0.74612  -0.60477
 Alpha  occ. eigenvalues --   -0.60477  -0.52831  -0.46078  -0.45260  -0.42612
 Alpha  occ. eigenvalues --   -0.42612  -0.36608  -0.34618  -0.34618  -0.25101
 Alpha  occ. eigenvalues --   -0.25101
 Alpha virt. eigenvalues --    0.00517   0.00517   0.10658   0.16437   0.16437
 Alpha virt. eigenvalues --    0.16533   0.20649   0.20649   0.21256   0.32441
 Alpha virt. eigenvalues --    0.32441   0.33698   0.33698   0.57640   0.57721
 Alpha virt. eigenvalues --    0.66749   0.68919   0.69599   0.73880   0.73880
 Alpha virt. eigenvalues --    0.78734   0.78734   0.80454   0.80454   0.83241
 Alpha virt. eigenvalues --    0.83241   0.88416   0.90632   0.97127   1.01027
 Alpha virt. eigenvalues --    1.01027   1.10876   1.11537   1.11537   1.30069
 Alpha virt. eigenvalues --    1.30069   1.32899   1.45189   1.46554   1.46554
 Alpha virt. eigenvalues --    1.54639   1.54639   1.88990   1.88990   2.47380
          Condensed to atoms (all electrons):
              1          2          3          4          5          6
     1  H    0.504745   0.390005  -0.040378  -0.003707   0.003824  -0.000051
     2  C    0.390005   5.139338   0.457890  -0.040378  -0.081385   0.003824
     3  C   -0.040378   0.457890   5.139338   0.390005   0.457890  -0.040378
     4  H   -0.003707  -0.040378   0.390005   0.504745  -0.040378  -0.003707
     5  C    0.003824  -0.081385   0.457890  -0.040378   5.139338   0.390005
     6  H   -0.000051   0.003824  -0.040378  -0.003707   0.390005   0.504745
     7  C   -0.000167  -0.023039  -0.081385   0.003824   0.457890  -0.040378
     8  H    0.000002  -0.000167   0.003824  -0.000051  -0.040378  -0.003707
     9  C    0.003824  -0.081385  -0.023039  -0.000167  -0.081385   0.003824
    10  H   -0.000051   0.003824  -0.000167   0.000002   0.003824  -0.000051
    11  C   -0.040378   0.457890  -0.081385   0.003824  -0.023039  -0.000167
    12  H   -0.003707  -0.040378   0.003824  -0.000051  -0.000167   0.000002
              7          8          9         10         11         12
     1  H   -0.000167   0.000002   0.003824  -0.000051  -0.040378  -0.003707
     2  C   -0.023039  -0.000167  -0.081385   0.003824   0.457890  -0.040378
     3  C   -0.081385   0.003824  -0.023039  -0.000167  -0.081385   0.003824
     4  H    0.003824  -0.000051  -0.000167   0.000002   0.003824  -0.000051
     5  C    0.457890  -0.040378  -0.081385   0.003824  -0.023039  -0.000167
     6  H   -0.040378  -0.003707   0.003824  -0.000051  -0.000167   0.000002
     7  C    5.139338   0.390005   0.457890  -0.040378  -0.081385   0.003824
     8  H    0.390005   0.504745  -0.040378  -0.003707   0.003824  -0.000051
     9  C    0.457890  -0.040378   5.139338   0.390005   0.457890  -0.040378
    10  H   -0.040378  -0.003707   0.390005   0.504745  -0.040378  -0.003707
    11  C   -0.081385   0.003824   0.457890  -0.040378   5.139338   0.390005
    12  H    0.003824  -0.000051  -0.040378  -0.003707   0.390005   0.504745
 Mulliken atomic charges:
              1
     1  H    0.186040
     2  C   -0.186040
     3  C   -0.186040
     4  H    0.186040
     5  C   -0.186040
     6  H    0.186040
     7  C   -0.186040
     8  H    0.186040
     9  C   -0.186040
    10  H    0.186040
    11  C   -0.186040
    12  H    0.186040
 Sum of Mulliken charges=   0.00000
 Atomic charges with hydrogens summed into heavy atoms:
              1
     1  H    0.000000
     2  C    0.000000
     3  C    0.000000
     4  H    0.000000
     5  C    0.000000
     6  H    0.000000
     7  C    0.000000
     8  H    0.000000
     9  C    0.000000
    10  H    0.000000
    11  C    0.000000
    12  H    0.000000
 Sum of Mulliken charges=   0.00000
 Electronic spatial extent (au):  <R**2>=   459.1449
 Charge=     0.0000 electrons
 Dipole moment (field-independent basis, Debye):
    X=     0.0000    Y=     0.0000    Z=     0.0000  Tot=     0.0000
 Quadrupole moment (field-independent basis, Debye-Ang):
   XX=   -31.1853   YY=   -31.1853   ZZ=   -39.9033
   XY=     0.0000   XZ=     0.0000   YZ=     0.0000
 Traceless Quadrupole moment (field-independent basis, Debye-Ang):
   XX=     2.9060   YY=     2.9060   ZZ=    -5.8120
   XY=     0.0000   XZ=     0.0000   YZ=     0.0000
 Octapole moment (field-independent basis, Debye-Ang**2):
  XXX=     0.0000  YYY=     0.0000  ZZZ=     0.0000  XYY=     0.0000
  XXY=     0.0000  XXZ=     0.0000  XZZ=     0.0000  YZZ=     0.0000
  YYZ=     0.0000  XYZ=     0.0000
 Hexadecapole moment (field-independent basis, Debye-Ang**3):
 XXXX=  -262.2584 YYYY=  -262.2584 ZZZZ=   -41.4569 XXXY=     0.0000
 XXXZ=     0.0000 YYYX=     0.0000 YYYZ=     0.0000 ZZZX=     0.0000
 ZZZY=     0.0000 XXYY=   -87.4195 XXZZ=   -61.2618 YYZZ=   -61.2618
 XXYZ=     0.0000 YYXZ=     0.0000 ZZXY=     0.0000
 N-N= 2.031383992513D+02 E-N=-9.406256407831D+02  KE= 2.289168767420D+02
 Symmetry AG   KE= 7.373855245390D+01
 Symmetry B1G  KE= 3.728381428878D+01
 Symmetry B2G  KE= 2.229160927308D+00
 Symmetry B3G  KE= 2.229160927308D+00
 Symmetry AU   KE=-3.882933768951D-16
 Symmetry B1U  KE= 1.863986945995D+00
 Symmetry B2U  KE= 7.144023112457D+01
 Symmetry B3U  KE= 4.013197007414D+01
 Final structure in terms of initial Z-matrix:
 H
 C,1,r2
 C,2,r3,1,a3
 H,3,r2,2,a3,1,d4,0
 C,3,r3,2,a3,1,d5,0
 H,5,r2,3,a3,2,d5,0
 C,5,r3,3,a3,2,d4,0
 H,7,r2,5,a3,3,d5,0
 C,7,r3,5,a3,3,d4,0
 H,9,r2,7,a3,5,d5,0
 C,9,r3,7,a3,5,d4,0
 H,11,r2,9,a3,7,d5,0
      Variables:
 r2=1.0840185
 r3=1.39769179
 a3=120.
 d4=0.
 d5=180.
 1|1|UNPC-UNK|FOpt|RB3LYP|3-21G|C6H6|PCUSER|29-May-2009|0||# B3LYP/3-21
 G opt||_Benzene||0,1|H,0.,0.,0.0040897127|C,0.,0.,1.0881082098|C,1.210
 4365969,0.,1.7869541049|H,2.1492241536,0.,1.2449448563|C,1.2104365969,
 0.,3.1846458951|H,2.1492241536,0.,3.7266551437|C,0.,0.,3.8834917902|H,
 0.,0.,4.9675102873|C,-1.2104365969,0.,3.1846458951|H,-2.1492241536,0.,
 3.7266551437|C,-1.2104365969,0.,1.7869541049|H,-2.1492241536,0.,1.2449
 448563||Version=IA32W-G03RevE.01|State=1-A1G|HF=-230.9757727|RMSD=7.49
 5e-010|RMSF=1.840e-004|Thermal=0.|Dipole=0.,0.,0.|PG=D06H [3C2'(H1C1.C
 1H1)]||@


 MUD THROWN IS GROUND LOST -- FROM A TEA BAG
 Job cpu time:  0 days  0 hours  0 minutes 12.0 seconds.
 File lengths (MBytes):  RWF=     16 Int=      0 D2E=      0 Chk=      7 Scr=      1
 Normal termination of Gaussian 03 at Fri May 29 09:38:07 2009.
