 Entering Gaussian System, Link 0=g09
 Initial command:
 /ichec/packages/gaussian/09b01/l1.exe /ichec/scratch/gaussian/Gau-13719.inp -scrdir=/ichec/scratch/gaussian/
 Entering Link 1 = /ichec/packages/gaussian/09b01/l1.exe PID=     13720.
  
 Copyright (c) 1988,1990,1992,1993,1995,1998,2003,2009,2010,
            Gaussian, Inc.  All Rights Reserved.
  
 This is part of the Gaussian(R) 09 program.  It is based on
 the Gaussian(R) 03 system (copyright 2003, Gaussian, Inc.),
 the Gaussian(R) 98 system (copyright 1998, Gaussian, Inc.),
 the Gaussian(R) 94 system (copyright 1995, Gaussian, Inc.),
 the Gaussian 92(TM) system (copyright 1992, Gaussian, Inc.),
 the Gaussian 90(TM) system (copyright 1990, Gaussian, Inc.),
 the Gaussian 88(TM) system (copyright 1988, Gaussian, Inc.),
 the Gaussian 86(TM) system (copyright 1986, Carnegie Mellon
 University), and the Gaussian 82(TM) system (copyright 1983,
 Carnegie Mellon University). Gaussian is a federally registered
 trademark of Gaussian, Inc.
  
 This software contains proprietary and confidential information,
 including trade secrets, belonging to Gaussian, Inc.
  
 This software is provided under written license and may be
 used, copied, transmitted, or stored only in accord with that
 written license.
  
 The following legend is applicable only to US Government
 contracts under FAR:
  
                    RESTRICTED RIGHTS LEGEND
  
 Use, reproduction and disclosure by the US Government is
 subject to restrictions as set forth in subparagraphs (a)
 and (c) of the Commercial Computer Software - Restricted
 Rights clause in FAR 52.227-19.
  
 Gaussian, Inc.
 340 Quinnipiac St., Bldg. 40, Wallingford CT 06492
  
  
 ---------------------------------------------------------------
 Warning -- This program may not be used in any manner that
 competes with the business of Gaussian, Inc. or will provide
 assistance to any competitor of Gaussian, Inc.  The licensee
 of this program is prohibited from giving any competitor of
 Gaussian, Inc. access to this program.  By using this program,
 the user acknowledges that Gaussian, Inc. is engaged in the
 business of creating and licensing software in the field of
 computational chemistry and represents and warrants to the
 licensee that it is not a competitor of Gaussian, Inc. and that
 it will not use this program in any manner prohibited above.
 ---------------------------------------------------------------
  

 Cite this work as:
 Gaussian 09, Revision B.01,
 M. J. Frisch, G. W. Trucks, H. B. Schlegel, G. E. Scuseria, 
 M. A. Robb, J. R. Cheeseman, G. Scalmani, V. Barone, B. Mennucci, 
 G. A. Petersson, H. Nakatsuji, M. Caricato, X. Li, H. P. Hratchian, 
 A. F. Izmaylov, J. Bloino, G. Zheng, J. L. Sonnenberg, M. Hada, 
 M. Ehara, K. Toyota, R. Fukuda, J. Hasegawa, M. Ishida, T. Nakajima, 
 Y. Honda, O. Kitao, H. Nakai, T. Vreven, J. A. Montgomery, Jr., 
 J. E. Peralta, F. Ogliaro, M. Bearpark, J. J. Heyd, E. Brothers, 
 K. N. Kudin, V. N. Staroverov, T. Keith, R. Kobayashi, J. Normand, 
 K. Raghavachari, A. Rendell, J. C. Burant, S. S. Iyengar, J. Tomasi, 
 M. Cossi, N. Rega, J. M. Millam, M. Klene, J. E. Knox, J. B. Cross, 
 V. Bakken, C. Adamo, J. Jaramillo, R. Gomperts, R. E. Stratmann, 
 O. Yazyev, A. J. Austin, R. Cammi, C. Pomelli, J. W. Ochterski, 
 R. L. Martin, K. Morokuma, V. G. Zakrzewski, G. A. Voth, 
 P. Salvador, J. J. Dannenberg, S. Dapprich, A. D. Daniels, 
 O. Farkas, J. B. Foresman, J. V. Ortiz, J. Cioslowski, 
 and D. J. Fox, Gaussian, Inc., Wallingford CT, 2010.
 
 ******************************************
 Gaussian 09:  EM64L-G09RevB.01 12-Aug-2010
                 4-Nov-2012 
 ******************************************
 %chk=benzene.chk
 %mem=12GB
 %nproc=12
 Will use up to   12 processors via shared memory.
 --------------------------------------------------------------------
 # RB3LYP/3-21G pop=full iop(3/33=1,3/36=-1) guess=read geom=allcheck
 --------------------------------------------------------------------
 1/29=7,38=1/1;
 2/12=2,40=1/2;
 3/5=5,11=2,14=-4,16=1,25=1,30=1,33=1,36=-1,74=-5,116=1/1,2,3;
 4/5=1/1;
 5/5=2,38=6/2;
 6/7=3,28=1/1;
 99/5=1,9=1/99;
 --------
 _Benzene
 --------
 Redundant internal coordinates taken from checkpoint file:
 benzene.chk
 Charge =  0 Multiplicity = 1
 H,0,0.,0.,0.0040897109
 C,0,0.,0.,1.0881082084
 C,0,1.2104365982,0.,1.7869541042
 H,0,2.1492241552,0.,1.2449448555
 C,0,1.2104365982,0.,3.1846458958
 H,0,2.1492241552,0.,3.7266551445
 C,0,0.,0.,3.8834917916
 H,0,0.,0.,4.9675102891
 C,0,-1.2104365982,0.,3.1846458958
 H,0,-2.1492241552,0.,3.7266551445
 C,0,-1.2104365982,0.,1.7869541042
 H,0,-2.1492241552,0.,1.2449448555
 Recover connectivity data from disk.
                          Input orientation:                          
 ---------------------------------------------------------------------
 Center     Atomic      Atomic             Coordinates (Angstroms)
 Number     Number       Type             X           Y           Z
 ---------------------------------------------------------------------
      1          1           0        0.000000    0.000000    0.004090
      2          6           0        0.000000    0.000000    1.088108
      3          6           0        1.210437    0.000000    1.786954
      4          1           0        2.149224    0.000000    1.244945
      5          6           0        1.210437    0.000000    3.184646
      6          1           0        2.149224    0.000000    3.726655
      7          6           0        0.000000    0.000000    3.883492
      8          1           0        0.000000    0.000000    4.967510
      9          6           0       -1.210437    0.000000    3.184646
     10          1           0       -2.149224    0.000000    3.726655
     11          6           0       -1.210437    0.000000    1.786954
     12          1           0       -2.149224    0.000000    1.244945
 ---------------------------------------------------------------------
                    Distance matrix (angstroms):
                    1          2          3          4          5
     1  H    0.000000
     2  C    1.084018   0.000000
     3  C    2.154939   1.397692   0.000000
     4  H    2.481710   2.154939   1.084018   0.000000
     5  C    3.403101   2.420873   1.397692   2.154939   0.000000
     6  H    4.298448   3.403101   2.154939   2.481710   1.084018
     7  C    3.879402   2.795384   2.420873   3.403101   1.397692
     8  H    4.963421   3.879402   3.403101   4.298448   2.154939
     9  C    3.403101   2.420873   2.795384   3.879402   2.420873
    10  H    4.298448   3.403101   3.879402   4.963421   3.403101
    11  C    2.154939   1.397692   2.420873   3.403101   2.795384
    12  H    2.481710   2.154939   3.403101   4.298448   3.879402
                    6          7          8          9         10
     6  H    0.000000
     7  C    2.154939   0.000000
     8  H    2.481710   1.084018   0.000000
     9  C    3.403101   1.397692   2.154939   0.000000
    10  H    4.298448   2.154939   2.481710   1.084018   0.000000
    11  C    3.879402   2.420873   3.403101   1.397692   2.154939
    12  H    4.963421   3.403101   4.298448   2.154939   2.481710
                   11         12
    11  C    0.000000
    12  H    1.084018   0.000000
 Stoichiometry    C6H6
 Framework group  D6H[3C2'(HC.CH)]
 Deg. of freedom     2
 Full point group                 D6H     NOp  24
 Largest Abelian subgroup         D2H     NOp   8
 Largest concise Abelian subgroup D2      NOp   4
                         Standard orientation:                         
 ---------------------------------------------------------------------
 Center     Atomic      Atomic             Coordinates (Angstroms)
 Number     Number       Type             X           Y           Z
 ---------------------------------------------------------------------
      1          1           0        0.000000    2.481710    0.000000
      2          6           0        0.000000    1.397692    0.000000
      3          6           0        1.210437    0.698846    0.000000
      4          1           0        2.149224    1.240855    0.000000
      5          6           0        1.210437   -0.698846    0.000000
      6          1           0        2.149224   -1.240855    0.000000
      7          6           0        0.000000   -1.397692    0.000000
      8          1           0        0.000000   -2.481710    0.000000
      9          6           0       -1.210437   -0.698846    0.000000
     10          1           0       -2.149224   -1.240855    0.000000
     11          6           0       -1.210437    0.698846    0.000000
     12          1           0       -2.149224    1.240855    0.000000
 ---------------------------------------------------------------------
 Rotational constants (GHZ):      5.6816867      5.6816867      2.8408434
 Standard basis: 3-21G (6D, 7F)
                         Coordinates in L301:                         
 ---------------------------------------------------------------------
 Center     Atomic      Atomic             Coordinates (Angstroms)
 Number     Number       Type             X           Y           Z
 ---------------------------------------------------------------------
      1          1           0        0.000000    2.481710    0.000000
      2          6           0        0.000000    1.397692    0.000000
      3          6           0        1.210437    0.698846    0.000000
      4          1           0        2.149224    1.240855    0.000000
      5          6           0        1.210437   -0.698846    0.000000
      6          1           0        2.149224   -1.240855    0.000000
      7          6           0        0.000000   -1.397692    0.000000
      8          1           0        0.000000   -2.481710    0.000000
      9          6           0       -1.210437   -0.698846    0.000000
     10          1           0       -2.149224   -1.240855    0.000000
     11          6           0       -1.210437    0.698846    0.000000
     12          1           0       -2.149224    1.240855    0.000000
 ---------------------------------------------------------------------
 FixB: optimizing general contractions.
 Ernie: Thresh=  0.10000D-02 Tol=  0.10000D-05 Strict=F.
 IA=     1 ShT= 0 ShC= 0 NL=   2 NS=   1.
 IA=     1 L=0 SC=0 ISt=    0 NBk=    0 NP=    0 IndPr=    0.
 IA=     2 ShT= 0 ShC= 0 NL=   1 NS=   0.
 IA=     2 L=0 SC=0 ISt=    0 NBk=    0 NP=    0 IndPr=    0.
 IA=     2 ShT= 1 ShC= 0 NL=   2 NS=   1.
 IA=     2 L=1 SC=0 ISt=    0 NBk=    0 NP=    0 IndPr=    0.
 IA=     3 ShT= 0 ShC= 0 NL=   1 NS=   0.
 IA=     3 L=0 SC=0 ISt=    0 NBk=    0 NP=    0 IndPr=    0.
 IA=     3 ShT= 1 ShC= 0 NL=   2 NS=   1.
 IA=     3 L=1 SC=0 ISt=    0 NBk=    0 NP=    0 IndPr=    0.
 IA=     4 ShT= 0 ShC= 0 NL=   2 NS=   1.
 IA=     4 L=0 SC=0 ISt=    0 NBk=    0 NP=    0 IndPr=    0.
 IA=     5 ShT= 0 ShC= 0 NL=   1 NS=   0.
 IA=     5 L=0 SC=0 ISt=    0 NBk=    0 NP=    0 IndPr=    0.
 IA=     5 ShT= 1 ShC= 0 NL=   2 NS=   1.
 IA=     5 L=1 SC=0 ISt=    0 NBk=    0 NP=    0 IndPr=    0.
 IA=     6 ShT= 0 ShC= 0 NL=   2 NS=   1.
 IA=     6 L=0 SC=0 ISt=    0 NBk=    0 NP=    0 IndPr=    0.
 IA=     7 ShT= 0 ShC= 0 NL=   1 NS=   0.
 IA=     7 L=0 SC=0 ISt=    0 NBk=    0 NP=    0 IndPr=    0.
 IA=     7 ShT= 1 ShC= 0 NL=   2 NS=   1.
 IA=     7 L=1 SC=0 ISt=    0 NBk=    0 NP=    0 IndPr=    0.
 IA=     8 ShT= 0 ShC= 0 NL=   2 NS=   1.
 IA=     8 L=0 SC=0 ISt=    0 NBk=    0 NP=    0 IndPr=    0.
 IA=     9 ShT= 0 ShC= 0 NL=   1 NS=   0.
 IA=     9 L=0 SC=0 ISt=    0 NBk=    0 NP=    0 IndPr=    0.
 IA=     9 ShT= 1 ShC= 0 NL=   2 NS=   1.
 IA=     9 L=1 SC=0 ISt=    0 NBk=    0 NP=    0 IndPr=    0.
 IA=    10 ShT= 0 ShC= 0 NL=   2 NS=   1.
 IA=    10 L=0 SC=0 ISt=    0 NBk=    0 NP=    0 IndPr=    0.
 IA=    11 ShT= 0 ShC= 0 NL=   1 NS=   0.
 IA=    11 L=0 SC=0 ISt=    0 NBk=    0 NP=    0 IndPr=    0.
 IA=    11 ShT= 1 ShC= 0 NL=   2 NS=   1.
 IA=    11 L=1 SC=0 ISt=    0 NBk=    0 NP=    0 IndPr=    0.
 IA=    12 ShT= 0 ShC= 0 NL=   2 NS=   1.
 IA=    12 L=0 SC=0 ISt=    0 NBk=    0 NP=    0 IndPr=    0.
 LdAtmC:  AtmChg=     1.000000     6.000000     6.000000     1.000000     6.000000
 LdAtmC:  AtmChg=     1.000000     6.000000     1.000000     6.000000     1.000000
 LdAtmC:  AtmChg=     6.000000     1.000000
 AtZEff=     -1.0000000     -3.6000000     -3.6000000     -1.0000000     -3.6000000
 AtZEff=     -1.0000000     -3.6000000     -1.0000000     -3.6000000     -1.0000000
 AtZEff=     -3.6000000     -1.0000000
 NEqShl: 
              1            2            3            4            5
     1            1           19            1           19            1
     2            2           20            2           20            2
     3            3           16            3           16            3
     4            4           17            4           17            4
     5            5           18            5           18            5
     6            6           21           26           11           26
     7            7           22           27           12           27
     8            8           23           28           13           28
     9            9           24           29           14           29
    10           10           25           30           15           30
    11           11           26           21            6           21
    12           12           27           22            7           22
    13           13           28           23            8           23
    14           14           29           24            9           24
    15           15           30           25           10           25
    16           16            3           16            3           16
    17           17            4           17            4           17
    18           18            5           18            5           18
    19           19            1           19            1           19
    20           20            2           20            2           20
    21           21            6           11           26           11
    22           22            7           12           27           12
    23           23            8           13           28           13
    24           24            9           14           29           14
    25           25           10           15           30           15
    26           26           11            6           21            6
    27           27           12            7           22            7
    28           28           13            8           23            8
    29           29           14            9           24            9
    30           30           15           10           25           10
              6            7            8            9           10
     1           19            1           19            9           14
     2           20            2           20           10           15
     3           16            3           16            6           11
     4           17            4           17            7           12
     5           18            5           18            8           13
     6           11            6           21           11           16
     7           12            7           22           12           17
     8           13            8           23           13           18
     9           14            9           24           14           19
    10           15           10           25           15           20
    11            6           11           26           16           21
    12            7           12           27           17           22
    13            8           13           28           18           23
    14            9           14           29           19           24
    15           10           15           30           20           25
    16            3           16            3           21           26
    17            4           17            4           22           27
    18            5           18            5           23           28
    19            1           19            1           24           29
    20            2           20            2           25           30
    21           26           21            6           26            3
    22           27           22            7           27            4
    23           28           23            8           28            5
    24           29           24            9           29            1
    25           30           25           10           30            2
    26           21           26           11            3            6
    27           22           27           12            4            7
    28           23           28           13            5            8
    29           24           29           14            1            9
    30           25           30           15            2           10
             11           12           13           14           15
     1           24           29           29           24           14
     2           25           30           30           25           15
     3           21           26           26           21           11
     4           22           27           27           22           12
     5           23           28           28           23           13
     6           26            3           21           16            6
     7           27            4           22           17            7
     8           28            5           23           18            8
     9           29            1           24           19            9
    10           30            2           25           20           10
    11            3            6           16           11            3
    12            4            7           17           12            4
    13            5            8           18           13            5
    14            1            9           19           14            1
    15            2           10           20           15            2
    16            6           11           11            6           26
    17            7           12           12            7           27
    18            8           13           13            8           28
    19            9           14           14            9           29
    20           10           15           15           10           30
    21           11           16            6            3           21
    22           12           17            7            4           22
    23           13           18            8            5           23
    24           14           19            9            1           24
    25           15           20           10            2           25
    26           16           21            3           26           16
    27           17           22            4           27           17
    28           18           23            5           28           18
    29           19           24            1           29           19
    30           20           25            2           30           20
             16           17           18           19           20
     1            9           29           24           14            9
     2           10           30           25           15           10
     3            6           26           21           11            6
     4            7           27           22           12            7
     5            8           28           23           13            8
     6            3           21           16            6            3
     7            4           22           17            7            4
     8            5           23           18            8            5
     9            1           24           19            9            1
    10            2           25           20           10            2
    11           26           16           11            3           26
    12           27           17           12            4           27
    13           28           18           13            5           28
    14           29           19           14            1           29
    15           30           20           15            2           30
    16           21           11            6           26           21
    17           22           12            7           27           22
    18           23           13            8           28           23
    19           24           14            9           29           24
    20           25           15           10           30           25
    21           16            6            3           21           16
    22           17            7            4           22           17
    23           18            8            5           23           18
    24           19            9            1           24           19
    25           20           10            2           25           20
    26           11            3           26           16           11
    27           12            4           27           17           12
    28           13            5           28           18           13
    29           14            1           29           19           14
    30           15            2           30           20           15
             21           22           23           24
     1            9           14           24           29
     2           10           15           25           30
     3            6           11           21           26
     4            7           12           22           27
     5            8           13           23           28
     6           11           16           26            3
     7           12           17           27            4
     8           13           18           28            5
     9           14           19           29            1
    10           15           20           30            2
    11           16           21            3            6
    12           17           22            4            7
    13           18           23            5            8
    14           19           24            1            9
    15           20           25            2           10
    16           21           26            6           11
    17           22           27            7           12
    18           23           28            8           13
    19           24           29            9           14
    20           25           30           10           15
    21           26            3           11           16
    22           27            4           12           17
    23           28            5           13           18
    24           29            1           14           19
    25           30            2           15           20
    26            3            6           16           21
    27            4            7           17           22
    28            5            8           18           23
    29            1            9           19           24
    30            2           10           20           25
 NEqBas: 
              1            2            3            4            5
     1            1           43            1           43            1
     2            2           44            2           44            2
     3            3           34            3           34            3
     4            4           35            4           35            4
     5            5          -36           -5           36           -5
     6            6          -37            6          -37            6
     7            7           38           -7          -38            7
     8            8           39            8           39            8
     9            9          -40           -9           40           -9
    10           10          -41           10          -41           10
    11           11           42          -11          -42           11
    12           12           45           56           23           56
    13           13           46           57           24           57
    14           14          -47          -58           25          -58
    15           15          -48           59          -26           59
    16           16           49          -60          -27           60
    17           17           50           61           28           61
    18           18          -51          -62           29          -62
    19           19          -52           63          -30           63
    20           20           53          -64          -31           64
    21           21           54           65           32           65
    22           22           55           66           33           66
    23           23           56           45           12           45
    24           24           57           46           13           46
    25           25          -58          -47           14          -47
    26           26          -59           48          -15           48
    27           27           60          -49          -16           49
    28           28           61           50           17           50
    29           29          -62          -51           18          -51
    30           30          -63           52          -19           52
    31           31           64          -53          -20           53
    32           32           65           54           21           54
    33           33           66           55           22           55
    34           34            3           34            3           34
    35           35            4           35            4           35
    36           36           -5          -36            5          -36
    37           37           -6           37           -6           37
    38           38            7          -38           -7           38
    39           39            8           39            8           39
    40           40           -9          -40            9          -40
    41           41          -10           41          -10           41
    42           42           11          -42          -11           42
    43           43            1           43            1           43
    44           44            2           44            2           44
    45           45           12           23           56           23
    46           46           13           24           57           24
    47           47          -14          -25           58          -25
    48           48          -15           26          -59           26
    49           49           16          -27          -60           27
    50           50           17           28           61           28
    51           51          -18          -29           62          -29
    52           52          -19           30          -63           30
    53           53           20          -31          -64           31
    54           54           21           32           65           32
    55           55           22           33           66           33
    56           56           23           12           45           12
    57           57           24           13           46           13
    58           58          -25          -14           47          -14
    59           59          -26           15          -48           15
    60           60           27          -16          -49           16
    61           61           28           17           50           17
    62           62          -29          -18           51          -18
    63           63          -30           19          -52           19
    64           64           31          -20          -53           20
    65           65           32           21           54           21
    66           66           33           22           55           22
              6            7            8
     1           43            1           43
     2           44            2           44
     3           34            3           34
     4           35            4           35
     5           36            5          -36
     6          -37            6          -37
     7           38           -7          -38
     8           39            8           39
     9           40            9          -40
    10          -41           10          -41
    11           42          -11          -42
    12           23           12           45
    13           24           13           46
    14           25           14          -47
    15          -26           15          -48
    16           27          -16          -49
    17           28           17           50
    18           29           18          -51
    19          -30           19          -52
    20           31          -20          -53
    21           32           21           54
    22           33           22           55
    23           12           23           56
    24           13           24           57
    25           14           25          -58
    26          -15           26          -59
    27           16          -27          -60
    28           17           28           61
    29           18           29          -62
    30          -19           30          -63
    31           20          -31          -64
    32           21           32           65
    33           22           33           66
    34            3           34            3
    35            4           35            4
    36            5           36           -5
    37           -6           37           -6
    38            7          -38           -7
    39            8           39            8
    40            9           40           -9
    41          -10           41          -10
    42           11          -42          -11
    43            1           43            1
    44            2           44            2
    45           56           45           12
    46           57           46           13
    47           58           47          -14
    48          -59           48          -15
    49           60          -49          -16
    50           61           50           17
    51           62           51          -18
    52          -63           52          -19
    53           64          -53          -20
    54           65           54           21
    55           66           55           22
    56           45           56           23
    57           46           57           24
    58           47           58          -25
    59          -48           59          -26
    60           49          -60          -27
    61           50           61           28
    62           51           62          -29
    63          -52           63          -30
    64           53          -64          -31
    65           54           65           32
    66           55           66           33
 NEqShl: 
              1            2            3            4            5
     1            1           19            1           19            1
     2            2           20            2           20            2
     3            3           16            3           16            3
     4            4           17            4           17            4
     5            5           18            5           18            5
     6            6           21           26           11           26
     7            7           22           27           12           27
     8            8           23           28           13           28
     9            9           24           29           14           29
    10           10           25           30           15           30
    11           11           26           21            6           21
    12           12           27           22            7           22
    13           13           28           23            8           23
    14           14           29           24            9           24
    15           15           30           25           10           25
    16           16            3           16            3           16
    17           17            4           17            4           17
    18           18            5           18            5           18
    19           19            1           19            1           19
    20           20            2           20            2           20
    21           21            6           11           26           11
    22           22            7           12           27           12
    23           23            8           13           28           13
    24           24            9           14           29           14
    25           25           10           15           30           15
    26           26           11            6           21            6
    27           27           12            7           22            7
    28           28           13            8           23            8
    29           29           14            9           24            9
    30           30           15           10           25           10
              6            7            8            9           10
     1           19            1           19            9           14
     2           20            2           20           10           15
     3           16            3           16            6           11
     4           17            4           17            7           12
     5           18            5           18            8           13
     6           11            6           21           11           16
     7           12            7           22           12           17
     8           13            8           23           13           18
     9           14            9           24           14           19
    10           15           10           25           15           20
    11            6           11           26           16           21
    12            7           12           27           17           22
    13            8           13           28           18           23
    14            9           14           29           19           24
    15           10           15           30           20           25
    16            3           16            3           21           26
    17            4           17            4           22           27
    18            5           18            5           23           28
    19            1           19            1           24           29
    20            2           20            2           25           30
    21           26           21            6           26            3
    22           27           22            7           27            4
    23           28           23            8           28            5
    24           29           24            9           29            1
    25           30           25           10           30            2
    26           21           26           11            3            6
    27           22           27           12            4            7
    28           23           28           13            5            8
    29           24           29           14            1            9
    30           25           30           15            2           10
             11           12           13           14           15
     1           24           29           29           24           14
     2           25           30           30           25           15
     3           21           26           26           21           11
     4           22           27           27           22           12
     5           23           28           28           23           13
     6           26            3           21           16            6
     7           27            4           22           17            7
     8           28            5           23           18            8
     9           29            1           24           19            9
    10           30            2           25           20           10
    11            3            6           16           11            3
    12            4            7           17           12            4
    13            5            8           18           13            5
    14            1            9           19           14            1
    15            2           10           20           15            2
    16            6           11           11            6           26
    17            7           12           12            7           27
    18            8           13           13            8           28
    19            9           14           14            9           29
    20           10           15           15           10           30
    21           11           16            6            3           21
    22           12           17            7            4           22
    23           13           18            8            5           23
    24           14           19            9            1           24
    25           15           20           10            2           25
    26           16           21            3           26           16
    27           17           22            4           27           17
    28           18           23            5           28           18
    29           19           24            1           29           19
    30           20           25            2           30           20
             16           17           18           19           20
     1            9           29           24           14            9
     2           10           30           25           15           10
     3            6           26           21           11            6
     4            7           27           22           12            7
     5            8           28           23           13            8
     6            3           21           16            6            3
     7            4           22           17            7            4
     8            5           23           18            8            5
     9            1           24           19            9            1
    10            2           25           20           10            2
    11           26           16           11            3           26
    12           27           17           12            4           27
    13           28           18           13            5           28
    14           29           19           14            1           29
    15           30           20           15            2           30
    16           21           11            6           26           21
    17           22           12            7           27           22
    18           23           13            8           28           23
    19           24           14            9           29           24
    20           25           15           10           30           25
    21           16            6            3           21           16
    22           17            7            4           22           17
    23           18            8            5           23           18
    24           19            9            1           24           19
    25           20           10            2           25           20
    26           11            3           26           16           11
    27           12            4           27           17           12
    28           13            5           28           18           13
    29           14            1           29           19           14
    30           15            2           30           20           15
             21           22           23           24
     1            9           14           24           29
     2           10           15           25           30
     3            6           11           21           26
     4            7           12           22           27
     5            8           13           23           28
     6           11           16           26            3
     7           12           17           27            4
     8           13           18           28            5
     9           14           19           29            1
    10           15           20           30            2
    11           16           21            3            6
    12           17           22            4            7
    13           18           23            5            8
    14           19           24            1            9
    15           20           25            2           10
    16           21           26            6           11
    17           22           27            7           12
    18           23           28            8           13
    19           24           29            9           14
    20           25           30           10           15
    21           26            3           11           16
    22           27            4           12           17
    23           28            5           13           18
    24           29            1           14           19
    25           30            2           15           20
    26            3            6           16           21
    27            4            7           17           22
    28            5            8           18           23
    29            1            9           19           24
    30            2           10           20           25
 NEqBas: 
              1            2            3            4            5
     1            1           43            1           43            1
     2            2           44            2           44            2
     3            3           34            3           34            3
     4            4           35            4           35            4
     5            5          -36           -5           36           -5
     6            6          -37            6          -37            6
     7            7           38           -7          -38            7
     8            8           39            8           39            8
     9            9          -40           -9           40           -9
    10           10          -41           10          -41           10
    11           11           42          -11          -42           11
    12           12           45           56           23           56
    13           13           46           57           24           57
    14           14          -47          -58           25          -58
    15           15          -48           59          -26           59
    16           16           49          -60          -27           60
    17           17           50           61           28           61
    18           18          -51          -62           29          -62
    19           19          -52           63          -30           63
    20           20           53          -64          -31           64
    21           21           54           65           32           65
    22           22           55           66           33           66
    23           23           56           45           12           45
    24           24           57           46           13           46
    25           25          -58          -47           14          -47
    26           26          -59           48          -15           48
    27           27           60          -49          -16           49
    28           28           61           50           17           50
    29           29          -62          -51           18          -51
    30           30          -63           52          -19           52
    31           31           64          -53          -20           53
    32           32           65           54           21           54
    33           33           66           55           22           55
    34           34            3           34            3           34
    35           35            4           35            4           35
    36           36           -5          -36            5          -36
    37           37           -6           37           -6           37
    38           38            7          -38           -7           38
    39           39            8           39            8           39
    40           40           -9          -40            9          -40
    41           41          -10           41          -10           41
    42           42           11          -42          -11           42
    43           43            1           43            1           43
    44           44            2           44            2           44
    45           45           12           23           56           23
    46           46           13           24           57           24
    47           47          -14          -25           58          -25
    48           48          -15           26          -59           26
    49           49           16          -27          -60           27
    50           50           17           28           61           28
    51           51          -18          -29           62          -29
    52           52          -19           30          -63           30
    53           53           20          -31          -64           31
    54           54           21           32           65           32
    55           55           22           33           66           33
    56           56           23           12           45           12
    57           57           24           13           46           13
    58           58          -25          -14           47          -14
    59           59          -26           15          -48           15
    60           60           27          -16          -49           16
    61           61           28           17           50           17
    62           62          -29          -18           51          -18
    63           63          -30           19          -52           19
    64           64           31          -20          -53           20
    65           65           32           21           54           21
    66           66           33           22           55           22
              6            7            8
     1           43            1           43
     2           44            2           44
     3           34            3           34
     4           35            4           35
     5           36            5          -36
     6          -37            6          -37
     7           38           -7          -38
     8           39            8           39
     9           40            9          -40
    10          -41           10          -41
    11           42          -11          -42
    12           23           12           45
    13           24           13           46
    14           25           14          -47
    15          -26           15          -48
    16           27          -16          -49
    17           28           17           50
    18           29           18          -51
    19          -30           19          -52
    20           31          -20          -53
    21           32           21           54
    22           33           22           55
    23           12           23           56
    24           13           24           57
    25           14           25          -58
    26          -15           26          -59
    27           16          -27          -60
    28           17           28           61
    29           18           29          -62
    30          -19           30          -63
    31           20          -31          -64
    32           21           32           65
    33           22           33           66
    34            3           34            3
    35            4           35            4
    36            5           36           -5
    37           -6           37           -6
    38            7          -38           -7
    39            8           39            8
    40            9           40           -9
    41          -10           41          -10
    42           11          -42          -11
    43            1           43            1
    44            2           44            2
    45           56           45           12
    46           57           46           13
    47           58           47          -14
    48          -59           48          -15
    49           60          -49          -16
    50           61           50           17
    51           62           51          -18
    52          -63           52          -19
    53           64          -53          -20
    54           65           54           21
    55           66           55           22
    56           45           56           23
    57           46           57           24
    58           47           58          -25
    59          -48           59          -26
    60           49          -60          -27
    61           50           61           28
    62           51           62          -29
    63          -52           63          -30
    64           53          -64          -31
    65           54           65           32
    66           55           66           33
 There are    16 symmetry adapted basis functions of AG  symmetry.
   1         1  43   1  43  43   1  43   1
   2         2  44   2  44  44   2  44   2
   3         3  34   3  34  34   3  34   3
   4         4  35   4  35  35   4  35   4
   5         6 -37   6 -37 -37   6 -37   6
   6         8  39   8  39  39   8  39   8
   7        10 -41  10 -41 -41  10 -41  10
   8        12  45  56  23  45  12  23  56
   9        13  46  57  24  46  13  24  57
  10        14 -47 -58  25 -47  14  25 -58
  11        15 -48  59 -26 -48  15 -26  59
  12        17  50  61  28  50  17  28  61
  13        18 -51 -62  29 -51  18  29 -62
  14        19 -52  63 -30 -52  19 -30  63
  15        21  54  65  32  54  21  32  65
  16        22  55  66  33  55  22  33  66
 There are    11 symmetry adapted basis functions of B1G symmetry.
  17         5 -36   5 -36 -36   5 -36   5
  18         9 -40   9 -40 -40   9 -40   9
  19        12  45 -56 -23  45  12 -23 -56
  20        13  46 -57 -24  46  13 -24 -57
  21        14 -47  58 -25 -47  14 -25  58
  22        15 -48 -59  26 -48  15  26 -59
  23        17  50 -61 -28  50  17 -28 -61
  24        18 -51  62 -29 -51  18 -29  62
  25        19 -52 -63  30 -52  19  30 -63
  26        21  54 -65 -32  54  21 -32 -65
  27        22  55 -66 -33  55  22 -33 -66
 There are     2 symmetry adapted basis functions of B2G symmetry.
  28        16 -49 -60  27 -49  16  27 -60
  29        20 -53 -64  31 -53  20  31 -64
 There are     4 symmetry adapted basis functions of B3G symmetry.
  30         7 -38   7 -38 -38   7 -38   7
  31        11 -42  11 -42 -42  11 -42  11
  32        16 -49  60 -27 -49  16 -27  60
  33        20 -53  64 -31 -53  20 -31  64
 There are     2 symmetry adapted basis functions of AU  symmetry.
  34        16  49 -60 -27  49  16 -27 -60
  35        20  53 -64 -31  53  20 -31 -64
 There are     4 symmetry adapted basis functions of B1U symmetry.
  36         7  38   7  38  38   7  38   7
  37        11  42  11  42  42  11  42  11
  38        16  49  60  27  49  16  27  60
  39        20  53  64  31  53  20  31  64
 There are    16 symmetry adapted basis functions of B2U symmetry.
  40         1 -43   1 -43 -43   1 -43   1
  41         2 -44   2 -44 -44   2 -44   2
  42         3 -34   3 -34 -34   3 -34   3
  43         4 -35   4 -35 -35   4 -35   4
  44         6  37   6  37  37   6  37   6
  45         8 -39   8 -39 -39   8 -39   8
  46        10  41  10  41  41  10  41  10
  47        12 -45  56 -23 -45  12 -23  56
  48        13 -46  57 -24 -46  13 -24  57
  49        14  47 -58 -25  47  14 -25 -58
  50        15  48  59  26  48  15  26  59
  51        17 -50  61 -28 -50  17 -28  61
  52        18  51 -62 -29  51  18 -29 -62
  53        19  52  63  30  52  19  30  63
  54        21 -54  65 -32 -54  21 -32  65
  55        22 -55  66 -33 -55  22 -33  66
 There are    11 symmetry adapted basis functions of B3U symmetry.
  56         5  36   5  36  36   5  36   5
  57         9  40   9  40  40   9  40   9
  58        12 -45 -56  23 -45  12  23 -56
  59        13 -46 -57  24 -46  13  24 -57
  60        14  47  58  25  47  14  25  58
  61        15  48 -59 -26  48  15 -26 -59
  62        17 -50 -61  28 -50  17  28 -61
  63        18  51  62  29  51  18  29  62
  64        19  52 -63 -30  52  19 -30 -63
  65        21 -54 -65  32 -54  21  32 -65
  66        22 -55 -66  33 -55  22  33 -66
 Order= 1 2 3 4 8 7 6 5
 Reordered character table:
              1            2            3            4            5
     1            1            1            1            1            1
     2            1            1           -1           -1            1
     3            1           -1            1           -1            1
     4            1           -1           -1            1            1
     5            1           -1           -1            1           -1
     6            1           -1            1           -1           -1
     7            1            1           -1           -1           -1
     8            1            1            1            1           -1
              6            7            8
     1            1            1            1
     2            1           -1           -1
     3           -1            1           -1
     4           -1           -1            1
     5            1            1           -1
     6            1           -1            1
     7           -1            1            1
     8           -1           -1           -1
 Integral buffers will be    131072 words long.
 Raffenetti 2 integral format.
 Two-electron integral symmetry is turned on.
    66 basis functions,   108 primitive gaussians,    66 cartesian basis functions
    21 alpha electrons       21 beta electrons
       nuclear repulsion energy       203.1383991795 Hartrees.
 IS=     1 IAt=     1 ISR=     1 T=0 IP=      1 IndIP=      1 IndIPD=      0 C=  3.971513D-01  0.000000D+00                             NZ=T
 IS=     1 IAt=     1 ISR=     1 T=0 IP=      2 IndIP=      2 IndIPD=      1 C=  5.579200D-01  0.000000D+00                             NZ=T
 IS=     2 IAt=     1 ISR=     2 T=0 IP=      1 IndIP=      3 IndIPD=      0 C=  1.995672D-01  0.000000D+00                             NZ=T
 IS=     3 IAt=     2 ISR=     1 T=0 IP=      1 IndIP=      4 IndIPD=      0 C=  2.093132D+00  0.000000D+00                             NZ=T
 IS=     3 IAt=     2 ISR=     1 T=0 IP=      2 IndIP=      5 IndIPD=      1 C=  2.936751D+00  0.000000D+00                             NZ=T
 IS=     3 IAt=     2 ISR=     1 T=0 IP=      3 IndIP=      6 IndIPD=      2 C=  1.801737D+00  0.000000D+00                             NZ=T
 IS=     4 IAt=     2 ISR=     2 T=1 IP=      1 IndIP=      7 IndIPD=      0 C= -7.473843D-01  1.709178D+00                             NZ=T
 IS=     4 IAt=     2 ISR=     2 T=1 IP=      2 IndIP=      8 IndIPD=      1 C=  7.126610D-01  8.856221D-01                             NZ=T
 IS=     5 IAt=     2 ISR=     3 T=1 IP=      1 IndIP=      9 IndIPD=      0 C=  2.098285D-01  1.857223D-01                             NZ=T
 IS=     6 IAt=     3 ISR=     1 T=0 IP=      1 IndIP=     10 IndIPD=      0 C=  2.093132D+00  0.000000D+00                             NZ=T
 IS=     6 IAt=     3 ISR=     1 T=0 IP=      2 IndIP=     11 IndIPD=      1 C=  2.936751D+00  0.000000D+00                             NZ=T
 IS=     6 IAt=     3 ISR=     1 T=0 IP=      3 IndIP=     12 IndIPD=      2 C=  1.801737D+00  0.000000D+00                             NZ=T
 IS=     7 IAt=     3 ISR=     2 T=1 IP=      1 IndIP=     13 IndIPD=      0 C= -7.473843D-01  1.709178D+00                             NZ=T
 IS=     7 IAt=     3 ISR=     2 T=1 IP=      2 IndIP=     14 IndIPD=      1 C=  7.126610D-01  8.856221D-01                             NZ=T
 IS=     8 IAt=     3 ISR=     3 T=1 IP=      1 IndIP=     15 IndIPD=      0 C=  2.098285D-01  1.857223D-01                             NZ=T
 IS=     9 IAt=     4 ISR=     1 T=0 IP=      1 IndIP=     16 IndIPD=      0 C=  3.971513D-01  0.000000D+00                             NZ=T
 IS=     9 IAt=     4 ISR=     1 T=0 IP=      2 IndIP=     17 IndIPD=      1 C=  5.579200D-01  0.000000D+00                             NZ=T
 IS=    10 IAt=     4 ISR=     2 T=0 IP=      1 IndIP=     18 IndIPD=      0 C=  1.995672D-01  0.000000D+00                             NZ=T
 IS=    11 IAt=     5 ISR=     1 T=0 IP=      1 IndIP=     19 IndIPD=      0 C=  2.093132D+00  0.000000D+00                             NZ=T
 IS=    11 IAt=     5 ISR=     1 T=0 IP=      2 IndIP=     20 IndIPD=      1 C=  2.936751D+00  0.000000D+00                             NZ=T
 IS=    11 IAt=     5 ISR=     1 T=0 IP=      3 IndIP=     21 IndIPD=      2 C=  1.801737D+00  0.000000D+00                             NZ=T
 IS=    12 IAt=     5 ISR=     2 T=1 IP=      1 IndIP=     22 IndIPD=      0 C= -7.473843D-01  1.709178D+00                             NZ=T
 IS=    12 IAt=     5 ISR=     2 T=1 IP=      2 IndIP=     23 IndIPD=      1 C=  7.126610D-01  8.856221D-01                             NZ=T
 IS=    13 IAt=     5 ISR=     3 T=1 IP=      1 IndIP=     24 IndIPD=      0 C=  2.098285D-01  1.857223D-01                             NZ=T
 IS=    14 IAt=     6 ISR=     1 T=0 IP=      1 IndIP=     25 IndIPD=      0 C=  3.971513D-01  0.000000D+00                             NZ=T
 IS=    14 IAt=     6 ISR=     1 T=0 IP=      2 IndIP=     26 IndIPD=      1 C=  5.579200D-01  0.000000D+00                             NZ=T
 IS=    15 IAt=     6 ISR=     2 T=0 IP=      1 IndIP=     27 IndIPD=      0 C=  1.995672D-01  0.000000D+00                             NZ=T
 IS=    16 IAt=     7 ISR=     1 T=0 IP=      1 IndIP=     28 IndIPD=      0 C=  2.093132D+00  0.000000D+00                             NZ=T
 IS=    16 IAt=     7 ISR=     1 T=0 IP=      2 IndIP=     29 IndIPD=      1 C=  2.936751D+00  0.000000D+00                             NZ=T
 IS=    16 IAt=     7 ISR=     1 T=0 IP=      3 IndIP=     30 IndIPD=      2 C=  1.801737D+00  0.000000D+00                             NZ=T
 IS=    17 IAt=     7 ISR=     2 T=1 IP=      1 IndIP=     31 IndIPD=      0 C= -7.473843D-01  1.709178D+00                             NZ=T
 IS=    17 IAt=     7 ISR=     2 T=1 IP=      2 IndIP=     32 IndIPD=      1 C=  7.126610D-01  8.856221D-01                             NZ=T
 IS=    18 IAt=     7 ISR=     3 T=1 IP=      1 IndIP=     33 IndIPD=      0 C=  2.098285D-01  1.857223D-01                             NZ=T
 IS=    19 IAt=     8 ISR=     1 T=0 IP=      1 IndIP=     34 IndIPD=      0 C=  3.971513D-01  0.000000D+00                             NZ=T
 IS=    19 IAt=     8 ISR=     1 T=0 IP=      2 IndIP=     35 IndIPD=      1 C=  5.579200D-01  0.000000D+00                             NZ=T
 IS=    20 IAt=     8 ISR=     2 T=0 IP=      1 IndIP=     36 IndIPD=      0 C=  1.995672D-01  0.000000D+00                             NZ=T
 IS=    21 IAt=     9 ISR=     1 T=0 IP=      1 IndIP=     37 IndIPD=      0 C=  2.093132D+00  0.000000D+00                             NZ=T
 IS=    21 IAt=     9 ISR=     1 T=0 IP=      2 IndIP=     38 IndIPD=      1 C=  2.936751D+00  0.000000D+00                             NZ=T
 IS=    21 IAt=     9 ISR=     1 T=0 IP=      3 IndIP=     39 IndIPD=      2 C=  1.801737D+00  0.000000D+00                             NZ=T
 IS=    22 IAt=     9 ISR=     2 T=1 IP=      1 IndIP=     40 IndIPD=      0 C= -7.473843D-01  1.709178D+00                             NZ=T
 IS=    22 IAt=     9 ISR=     2 T=1 IP=      2 IndIP=     41 IndIPD=      1 C=  7.126610D-01  8.856221D-01                             NZ=T
 IS=    23 IAt=     9 ISR=     3 T=1 IP=      1 IndIP=     42 IndIPD=      0 C=  2.098285D-01  1.857223D-01                             NZ=T
 IS=    24 IAt=    10 ISR=     1 T=0 IP=      1 IndIP=     43 IndIPD=      0 C=  3.971513D-01  0.000000D+00                             NZ=T
 IS=    24 IAt=    10 ISR=     1 T=0 IP=      2 IndIP=     44 IndIPD=      1 C=  5.579200D-01  0.000000D+00                             NZ=T
 IS=    25 IAt=    10 ISR=     2 T=0 IP=      1 IndIP=     45 IndIPD=      0 C=  1.995672D-01  0.000000D+00                             NZ=T
 IS=    26 IAt=    11 ISR=     1 T=0 IP=      1 IndIP=     46 IndIPD=      0 C=  2.093132D+00  0.000000D+00                             NZ=T
 IS=    26 IAt=    11 ISR=     1 T=0 IP=      2 IndIP=     47 IndIPD=      1 C=  2.936751D+00  0.000000D+00                             NZ=T
 IS=    26 IAt=    11 ISR=     1 T=0 IP=      3 IndIP=     48 IndIPD=      2 C=  1.801737D+00  0.000000D+00                             NZ=T
 IS=    27 IAt=    11 ISR=     2 T=1 IP=      1 IndIP=     49 IndIPD=      0 C= -7.473843D-01  1.709178D+00                             NZ=T
 IS=    27 IAt=    11 ISR=     2 T=1 IP=      2 IndIP=     50 IndIPD=      1 C=  7.126610D-01  8.856221D-01                             NZ=T
 IS=    28 IAt=    11 ISR=     3 T=1 IP=      1 IndIP=     51 IndIPD=      0 C=  2.098285D-01  1.857223D-01                             NZ=T
 IS=    29 IAt=    12 ISR=     1 T=0 IP=      1 IndIP=     52 IndIPD=      0 C=  3.971513D-01  0.000000D+00                             NZ=T
 IS=    29 IAt=    12 ISR=     1 T=0 IP=      2 IndIP=     53 IndIPD=      1 C=  5.579200D-01  0.000000D+00                             NZ=T
 IS=    30 IAt=    12 ISR=     2 T=0 IP=      1 IndIP=     54 IndIPD=      0 C=  1.995672D-01  0.000000D+00                             NZ=T
 NAtoms=   12 NActive=   12 NUniq=    2 SFac= 4.00D+00 NAtFMM=   50 NAOKFM=F Big=F
 NPDir=0 NMtPBC=     1 NCelOv=     1 NCel=       1 NClECP=     1 NCelD=      1
         NCelK=      1 NCelE2=     1 NClLst=     1 CellRange=     0.0.
 One-electron integrals computed using PRISM.
 Entering OneElI...
 Calculate overlap and kinetic energy integrals
    NBasis =  66  MinDer = 0  MaxDer = 0
 Requested accuracy = 0.1000D-12
 Symmetry will be used
 PrsmSu:  NPrtUS=  12 ThrOK=T IAlg=1 NPAlg=2 LenDen=           0.
 Prism:   IPart=     0 DynPar=F LinDyn=F Incr=           1.
 PRISM was handed   134199087 working-precision words and   456 shell-pairs
 PRISM was handed   134199087 working-precision words and   456 shell-pairs
 PRISM was handed   134199087 working-precision words and   456 shell-pairs
 PRISM was handed   134199087 working-precision words and   456 shell-pairs
 PRISM was handed   134199087 working-precision words and   456 shell-pairs
 PRISM was handed   134199087 working-precision words and   456 shell-pairs
 PRISM was handed   134199087 working-precision words and   456 shell-pairs
 PRISM was handed   134199087 working-precision words and   456 shell-pairs
 PRISM was handed   134199087 working-precision words and   456 shell-pairs
 PRISM was handed   134199087 working-precision words and   456 shell-pairs
 PRISM was handed   134199087 working-precision words and   456 shell-pairs
 PRISM was handed   134199087 working-precision words and   456 shell-pairs
 IPart=  9 NShTot=           0 NBatch=           0 AvBLen=         0.0
 IPart= 11 NShTot=           0 NBatch=           0 AvBLen=         0.0
 IPart=  8 NShTot=           0 NBatch=           0 AvBLen=         0.0
 IPart= 10 NShTot=           0 NBatch=           0 AvBLen=         0.0
 IPart=  7 NShTot=           1 NBatch=           1 AvBLen=         1.0
 IPart=  6 NShTot=           3 NBatch=           3 AvBLen=         1.0
 IPart=  5 NShTot=           4 NBatch=           4 AvBLen=         1.0
 IPart=  4 NShTot=           4 NBatch=           4 AvBLen=         1.0
 IPart=  3 NShTot=           8 NBatch=           8 AvBLen=         1.0
 IPart=  2 NShTot=          10 NBatch=          10 AvBLen=         1.0
 IPart=  1 NShTot=          12 NBatch=          12 AvBLen=         1.0
 IPart=  0 NShTot=          16 NBatch=          16 AvBLen=         1.0
 PrSmSu:  NxtVal=             13.
 *** Overlap *** 
                1             2             3             4             5 
      1  0.100000D+01
      2  0.645898D+00  0.100000D+01
      3  0.195872D-01  0.814944D-01  0.100000D+01
      4  0.198075D+00  0.403996D+00  0.191447D+00  0.100000D+01
      5  0.000000D+00  0.000000D+00  0.000000D+00  0.000000D+00  0.100000D+01
      6  0.297664D+00  0.235208D+00  0.000000D+00  0.000000D+00  0.000000D+00
      7  0.000000D+00  0.000000D+00  0.000000D+00  0.000000D+00  0.000000D+00
      8  0.341175D+00  0.671629D+00  0.180314D+00  0.761357D+00  0.000000D+00
      9  0.000000D+00  0.000000D+00  0.000000D+00  0.000000D+00  0.528959D+00
     10  0.504332D+00  0.588539D+00  0.000000D+00  0.000000D+00  0.000000D+00
     11  0.000000D+00  0.000000D+00  0.000000D+00  0.000000D+00  0.000000D+00
     12  0.248966D-05  0.898834D-02  0.000000D+00  0.450800D-02  0.113753D-01
     13  0.148502D-02  0.669568D-01  0.450800D-02  0.930940D-01  0.137554D+00
     14 -0.219192D-02 -0.414029D-01 -0.113753D-01 -0.137554D+00 -0.166332D+00
     15  0.322850D-02  0.609827D-01  0.656751D-02  0.794168D-01  0.126508D+00
     16  0.000000D+00  0.000000D+00  0.000000D+00  0.000000D+00  0.000000D+00
     17  0.473395D-01  0.207933D+00  0.479270D-01  0.263386D+00  0.178209D+00
     18 -0.779267D-01 -0.203458D+00 -0.940927D-01 -0.415502D+00 -0.114205D+00
     19  0.114779D+00  0.299675D+00  0.543245D-01  0.239890D+00  0.167575D+00
     20  0.000000D+00  0.000000D+00  0.000000D+00  0.000000D+00  0.000000D+00
     21  0.944406D-04  0.233502D-01  0.248966D-05  0.148502D-02  0.389192D-02
     22  0.233502D-01  0.133382D+00  0.898834D-02  0.669568D-01  0.735140D-01
     23  0.000000D+00  0.109468D-03  0.000000D+00  0.000000D+00  0.000000D+00
     24  0.000000D+00  0.178653D-02  0.000000D+00  0.464470D-03  0.660864D-03
     25  0.000000D+00 -0.103972D-02  0.000000D+00 -0.660864D-03 -0.708970D-03
     26  0.000000D+00  0.273197D-02  0.145562D-05  0.114465D-02  0.163253D-02
     27  0.000000D+00  0.000000D+00  0.000000D+00  0.000000D+00  0.000000D+00
     28  0.922604D-03  0.199301D-01  0.338766D-02  0.310174D-01  0.198468D-01
     29 -0.151381D-02 -0.195011D-01 -0.664918D-02 -0.493477D-01 -0.126248D-01
     30  0.397771D-02  0.512414D-01  0.115167D-01  0.854728D-01  0.558247D-01
     31  0.000000D+00  0.000000D+00  0.000000D+00  0.000000D+00  0.000000D+00
     32  0.000000D+00  0.313364D-04  0.000000D+00  0.000000D+00  0.000000D+00
     33  0.313364D-04  0.237297D-02  0.109468D-03  0.178653D-02  0.184610D-02
     34  0.000000D+00  0.120874D-04  0.000000D+00  0.000000D+00  0.000000D+00
     35  0.000000D+00  0.289251D-03  0.000000D+00  0.316581D-04  0.000000D+00
     36  0.000000D+00  0.000000D+00  0.000000D+00  0.000000D+00  0.158720D-04
     37  0.000000D+00  0.529890D-03  0.000000D+00  0.103930D-03  0.000000D+00
     38  0.000000D+00  0.000000D+00  0.000000D+00  0.000000D+00  0.000000D+00
     39  0.129284D-03  0.617024D-02  0.900872D-03  0.105827D-01  0.000000D+00
     40  0.000000D+00  0.000000D+00  0.000000D+00  0.000000D+00  0.655662D-02
     41  0.679245D-03  0.193498D-01  0.408300D-02  0.389963D-01  0.000000D+00
     42  0.000000D+00  0.000000D+00  0.000000D+00  0.000000D+00  0.000000D+00
     43  0.000000D+00  0.115505D-05  0.000000D+00  0.000000D+00  0.000000D+00
     44  0.115505D-05  0.316511D-03  0.120874D-04  0.289251D-03  0.000000D+00
     45  0.000000D+00  0.109468D-03  0.000000D+00  0.000000D+00  0.000000D+00
     46  0.000000D+00  0.178653D-02  0.000000D+00  0.464470D-03 -0.660864D-03
     47  0.000000D+00  0.103972D-02  0.000000D+00  0.660864D-03 -0.708970D-03
     48  0.000000D+00  0.273197D-02  0.145562D-05  0.114465D-02 -0.163253D-02
     49  0.000000D+00  0.000000D+00  0.000000D+00  0.000000D+00  0.000000D+00
     50  0.922604D-03  0.199301D-01  0.338766D-02  0.310174D-01 -0.198468D-01
     51  0.151381D-02  0.195011D-01  0.664918D-02  0.493477D-01 -0.126248D-01
     52  0.397771D-02  0.512414D-01  0.115167D-01  0.854728D-01 -0.558247D-01
     53  0.000000D+00  0.000000D+00  0.000000D+00  0.000000D+00  0.000000D+00
     54  0.000000D+00  0.313364D-04  0.000000D+00  0.000000D+00  0.000000D+00
     55  0.313364D-04  0.237297D-02  0.109468D-03  0.178653D-02 -0.184610D-02
     56  0.248966D-05  0.898834D-02  0.000000D+00  0.450800D-02 -0.113753D-01
     57  0.148502D-02  0.669568D-01  0.450800D-02  0.930940D-01 -0.137554D+00
     58  0.219192D-02  0.414029D-01  0.113753D-01  0.137554D+00 -0.166332D+00
     59  0.322850D-02  0.609827D-01  0.656751D-02  0.794168D-01 -0.126508D+00
     60  0.000000D+00  0.000000D+00  0.000000D+00  0.000000D+00  0.000000D+00
     61  0.473395D-01  0.207933D+00  0.479270D-01  0.263386D+00 -0.178209D+00
     62  0.779267D-01  0.203458D+00  0.940927D-01  0.415502D+00 -0.114205D+00
     63  0.114779D+00  0.299675D+00  0.543245D-01  0.239890D+00 -0.167575D+00
     64  0.000000D+00  0.000000D+00  0.000000D+00  0.000000D+00  0.000000D+00
     65  0.944406D-04  0.233502D-01  0.248966D-05  0.148502D-02 -0.389192D-02
     66  0.233502D-01  0.133382D+00  0.898834D-02  0.669568D-01 -0.735140D-01
                6             7             8             9            10 
      6  0.100000D+01
      7  0.000000D+00  0.100000D+01
      8  0.000000D+00  0.000000D+00  0.100000D+01
      9  0.000000D+00  0.000000D+00  0.000000D+00  0.100000D+01
     10  0.528959D+00  0.000000D+00  0.000000D+00  0.000000D+00  0.100000D+01
     11  0.000000D+00  0.528959D+00  0.000000D+00  0.000000D+00  0.000000D+00
     12 -0.656751D-02  0.000000D+00  0.479270D-01  0.940927D-01 -0.543245D-01
     13 -0.794168D-01  0.000000D+00  0.263386D+00  0.415502D+00 -0.239890D+00
     14  0.126508D+00  0.000000D+00 -0.178209D+00 -0.114205D+00  0.167575D+00
     15 -0.202534D-01  0.000000D+00  0.102889D+00  0.167575D+00  0.792934D-01
     16  0.000000D+00  0.527861D-01  0.000000D+00  0.000000D+00  0.000000D+00
     17 -0.102889D+00  0.000000D+00  0.505013D+00  0.511226D+00 -0.295156D+00
     18  0.167575D+00  0.000000D+00 -0.511226D+00 -0.125026D-01  0.298788D+00
     19  0.792934D-01  0.000000D+00  0.295156D+00  0.298788D+00  0.332508D+00
     20  0.000000D+00  0.176043D+00  0.000000D+00  0.000000D+00  0.000000D+00
     21 -0.284007D-03  0.000000D+00  0.473395D-01  0.138365D+00 -0.100970D-01
     22 -0.536458D-02  0.000000D+00  0.207933D+00  0.361255D+00 -0.263621D-01
     23 -0.145562D-05  0.000000D+00  0.338766D-02  0.664918D-02 -0.115167D-01
     24 -0.114465D-02  0.000000D+00  0.310174D-01  0.493477D-01 -0.854728D-01
     25  0.163253D-02  0.000000D+00 -0.198468D-01 -0.126248D-01  0.558247D-01
     26 -0.259405D-02  0.000000D+00  0.343757D-01  0.558247D-01 -0.770855D-01
     27  0.000000D+00  0.233570D-03  0.000000D+00  0.000000D+00  0.000000D+00
     28 -0.343757D-01  0.000000D+00  0.128797D+00  0.130382D+00 -0.225828D+00
     29  0.558247D-01  0.000000D+00 -0.130382D+00 -0.318865D-02  0.228607D+00
     30 -0.770855D-01  0.000000D+00  0.225828D+00  0.228607D+00 -0.267161D+00
     31  0.000000D+00  0.196056D-01  0.000000D+00  0.000000D+00  0.000000D+00
     32  0.000000D+00  0.000000D+00  0.922604D-03  0.268789D-02 -0.329986D-02
     33 -0.226641D-02  0.000000D+00  0.199301D-01  0.346258D-01 -0.425092D-01
     34  0.000000D+00  0.000000D+00  0.900872D-03  0.000000D+00 -0.408300D-02
     35 -0.103930D-03  0.000000D+00  0.105827D-01  0.000000D+00 -0.389963D-01
     36  0.000000D+00  0.000000D+00  0.000000D+00  0.655662D-02  0.000000D+00
     37 -0.325463D-03  0.000000D+00  0.153282D-01  0.000000D+00 -0.508671D-01
     38  0.000000D+00  0.158720D-04  0.000000D+00  0.000000D+00  0.000000D+00
     39 -0.153282D-01  0.000000D+00  0.650444D-01  0.000000D+00 -0.152062D+00
     40  0.000000D+00  0.000000D+00  0.000000D+00  0.650444D-01  0.000000D+00
     41 -0.508671D-01  0.000000D+00  0.152062D+00  0.000000D+00 -0.290447D+00
     42  0.000000D+00  0.655662D-02  0.000000D+00  0.000000D+00  0.000000D+00
     43  0.000000D+00  0.000000D+00  0.129284D-03  0.000000D+00 -0.679245D-03
     44 -0.529890D-03  0.000000D+00  0.617024D-02  0.000000D+00 -0.193498D-01
     45 -0.145562D-05  0.000000D+00  0.338766D-02 -0.664918D-02 -0.115167D-01
     46 -0.114465D-02  0.000000D+00  0.310174D-01 -0.493477D-01 -0.854728D-01
     47 -0.163253D-02  0.000000D+00  0.198468D-01 -0.126248D-01 -0.558247D-01
     48 -0.259405D-02  0.000000D+00  0.343757D-01 -0.558247D-01 -0.770855D-01
     49  0.000000D+00  0.233570D-03  0.000000D+00  0.000000D+00  0.000000D+00
     50 -0.343757D-01  0.000000D+00  0.128797D+00 -0.130382D+00 -0.225828D+00
     51 -0.558247D-01  0.000000D+00  0.130382D+00 -0.318865D-02 -0.228607D+00
     52 -0.770855D-01  0.000000D+00  0.225828D+00 -0.228607D+00 -0.267161D+00
     53  0.000000D+00  0.196056D-01  0.000000D+00  0.000000D+00  0.000000D+00
     54  0.000000D+00  0.000000D+00  0.922604D-03 -0.268789D-02 -0.329986D-02
     55 -0.226641D-02  0.000000D+00  0.199301D-01 -0.346258D-01 -0.425092D-01
     56 -0.656751D-02  0.000000D+00  0.479270D-01 -0.940927D-01 -0.543245D-01
     57 -0.794168D-01  0.000000D+00  0.263386D+00 -0.415502D+00 -0.239890D+00
     58 -0.126508D+00  0.000000D+00  0.178209D+00 -0.114205D+00 -0.167575D+00
     59 -0.202534D-01  0.000000D+00  0.102889D+00 -0.167575D+00  0.792934D-01
     60  0.000000D+00  0.527861D-01  0.000000D+00  0.000000D+00  0.000000D+00
     61 -0.102889D+00  0.000000D+00  0.505013D+00 -0.511226D+00 -0.295156D+00
     62 -0.167575D+00  0.000000D+00  0.511226D+00 -0.125026D-01 -0.298788D+00
     63  0.792934D-01  0.000000D+00  0.295156D+00 -0.298788D+00  0.332508D+00
     64  0.000000D+00  0.176043D+00  0.000000D+00  0.000000D+00  0.000000D+00
     65 -0.284007D-03  0.000000D+00  0.473395D-01 -0.138365D+00 -0.100970D-01
     66 -0.536458D-02  0.000000D+00  0.207933D+00 -0.361255D+00 -0.263621D-01
               11            12            13            14            15 
     11  0.100000D+01
     12  0.000000D+00  0.100000D+01
     13  0.000000D+00  0.191447D+00  0.100000D+01
     14  0.000000D+00  0.000000D+00  0.000000D+00  0.100000D+01
     15  0.000000D+00  0.000000D+00  0.000000D+00  0.000000D+00  0.100000D+01
     16  0.176043D+00  0.000000D+00  0.000000D+00  0.000000D+00  0.000000D+00
     17  0.000000D+00  0.180314D+00  0.761357D+00  0.000000D+00  0.000000D+00
     18  0.000000D+00  0.000000D+00  0.000000D+00  0.528959D+00  0.000000D+00
     19  0.000000D+00  0.000000D+00  0.000000D+00  0.000000D+00  0.528959D+00
     20  0.505013D+00  0.000000D+00  0.000000D+00  0.000000D+00  0.000000D+00
     21  0.000000D+00  0.195872D-01  0.198075D+00  0.257784D+00  0.148832D+00
     22  0.000000D+00  0.814944D-01  0.403996D+00  0.203696D+00  0.117604D+00
     23  0.000000D+00  0.000000D+00  0.450800D-02  0.000000D+00 -0.131350D-01
     24  0.000000D+00  0.450800D-02  0.930940D-01  0.000000D+00 -0.158834D+00
     25  0.000000D+00  0.000000D+00  0.000000D+00  0.527861D-01  0.000000D+00
     26  0.000000D+00  0.131350D-01  0.158834D+00  0.000000D+00 -0.239372D+00
     27  0.196056D-01  0.000000D+00  0.000000D+00  0.000000D+00  0.000000D+00
     28  0.000000D+00  0.479270D-01  0.263386D+00  0.000000D+00 -0.205778D+00
     29  0.000000D+00  0.000000D+00  0.000000D+00  0.176043D+00  0.000000D+00
     30  0.000000D+00  0.108649D+00  0.479780D+00  0.000000D+00 -0.210955D+00
     31  0.128797D+00  0.000000D+00  0.000000D+00  0.000000D+00  0.000000D+00
     32  0.000000D+00  0.248966D-05  0.148502D-02  0.170000D-02 -0.351250D-02
     33  0.000000D+00  0.898834D-02  0.669568D-01  0.321111D-01 -0.663473D-01
     34  0.000000D+00  0.000000D+00  0.000000D+00  0.000000D+00 -0.145562D-05
     35  0.000000D+00  0.000000D+00  0.464470D-03 -0.660864D-03 -0.114465D-02
     36  0.000000D+00  0.000000D+00  0.660864D-03 -0.708970D-03 -0.163253D-02
     37  0.000000D+00  0.145562D-05  0.114465D-02 -0.163253D-02 -0.259405D-02
     38  0.655662D-02  0.000000D+00  0.000000D+00  0.000000D+00  0.000000D+00
     39  0.000000D+00  0.338766D-02  0.310174D-01 -0.198468D-01 -0.343757D-01
     40  0.000000D+00  0.664918D-02  0.493477D-01 -0.126248D-01 -0.558247D-01
     41  0.000000D+00  0.115167D-01  0.854728D-01 -0.558247D-01 -0.770855D-01
     42  0.650444D-01  0.000000D+00  0.000000D+00  0.000000D+00  0.000000D+00
     43  0.000000D+00  0.000000D+00  0.000000D+00  0.000000D+00  0.000000D+00
     44  0.000000D+00  0.109468D-03  0.178653D-02 -0.103972D-02 -0.273197D-02
     45  0.000000D+00  0.000000D+00  0.000000D+00  0.000000D+00  0.000000D+00
     46  0.000000D+00  0.000000D+00  0.316581D-04 -0.900064D-04 -0.519652D-04
     47  0.000000D+00  0.000000D+00  0.900064D-04 -0.240129D-03 -0.147802D-03
     48  0.000000D+00  0.000000D+00  0.519652D-04 -0.147802D-03 -0.694616D-04
     49  0.196056D-01  0.000000D+00  0.000000D+00  0.000000D+00  0.000000D+00
     50  0.000000D+00  0.900872D-03  0.105827D-01 -0.132746D-01 -0.766408D-02
     51  0.000000D+00  0.353598D-02  0.337718D-01 -0.365111D-01 -0.248652D-01
     52  0.000000D+00  0.204150D-02  0.194982D-01 -0.248652D-01 -0.779930D-02
     53  0.128797D+00  0.000000D+00  0.000000D+00  0.000000D+00  0.000000D+00
     54  0.000000D+00  0.000000D+00  0.000000D+00  0.000000D+00  0.000000D+00
     55  0.000000D+00  0.120874D-04  0.289251D-03 -0.458898D-03 -0.264945D-03
     56  0.000000D+00  0.000000D+00  0.000000D+00 -0.168080D-05  0.000000D+00
     57  0.000000D+00  0.000000D+00  0.464470D-03 -0.132173D-02  0.000000D+00
     58  0.000000D+00  0.168080D-05  0.132173D-02 -0.353659D-02  0.000000D+00
     59  0.000000D+00  0.000000D+00  0.000000D+00  0.000000D+00  0.233570D-03
     60  0.176043D+00  0.000000D+00  0.000000D+00  0.000000D+00  0.000000D+00
     61  0.000000D+00  0.338766D-02  0.310174D-01 -0.396937D-01  0.000000D+00
     62  0.000000D+00  0.132984D-01  0.986955D-01 -0.109316D+00  0.000000D+00
     63  0.000000D+00  0.000000D+00  0.000000D+00  0.000000D+00  0.196056D-01
     64  0.505013D+00  0.000000D+00  0.000000D+00  0.000000D+00  0.000000D+00
     65  0.000000D+00  0.000000D+00  0.000000D+00  0.000000D+00  0.000000D+00
     66  0.000000D+00  0.109468D-03  0.178653D-02 -0.288582D-02  0.465565D-03
               16            17            18            19            20 
     16  0.100000D+01
     17  0.000000D+00  0.100000D+01
     18  0.000000D+00  0.000000D+00  0.100000D+01
     19  0.000000D+00  0.000000D+00  0.000000D+00  0.100000D+01
     20  0.528959D+00  0.000000D+00  0.000000D+00  0.000000D+00  0.100000D+01
     21  0.000000D+00  0.341175D+00  0.436765D+00  0.252166D+00  0.000000D+00
     22  0.000000D+00  0.671629D+00  0.509690D+00  0.294270D+00  0.000000D+00
     23  0.000000D+00  0.479270D-01  0.000000D+00 -0.108649D+00  0.000000D+00
     24  0.000000D+00  0.263386D+00  0.000000D+00 -0.479780D+00  0.000000D+00
     25  0.000000D+00  0.000000D+00  0.176043D+00  0.000000D+00  0.000000D+00
     26  0.000000D+00  0.205778D+00  0.000000D+00 -0.210955D+00  0.000000D+00
     27  0.527861D-01  0.000000D+00  0.000000D+00  0.000000D+00  0.176043D+00
     28  0.000000D+00  0.505013D+00  0.000000D+00 -0.590313D+00  0.000000D+00
     29  0.000000D+00  0.000000D+00  0.505013D+00  0.000000D+00  0.000000D+00
     30  0.000000D+00  0.590313D+00  0.000000D+00 -0.185008D+00  0.000000D+00
     31  0.176043D+00  0.000000D+00  0.000000D+00  0.000000D+00  0.505013D+00
     32  0.000000D+00  0.473395D-01  0.604382D-01 -0.124876D+00  0.000000D+00
[...]
  42        3PZ         0.07558   0.00000   0.00000   0.00000   0.00000
  43 8   H  1S          0.00000   0.00000  -0.00052  -0.00131   0.01179
  44        2S          0.00000  -0.00052  -0.00267  -0.00064   0.00808
  45 9   C  1S          0.00000   0.00000   0.00000   0.00000  -0.00014
  46        2S          0.00000   0.00000   0.00002  -0.00014   0.00213
  47        2PX         0.00000   0.00000   0.00012  -0.00078   0.00951
  48        2PY         0.00000   0.00000   0.00001  -0.00025   0.00315
  49        2PZ        -0.00048   0.00000   0.00000   0.00000   0.00000
  50        3S          0.00000   0.00005   0.00101   0.00321   0.00744
  51        3PX         0.00000   0.00014   0.00234   0.00307   0.01075
  52        3PY         0.00000   0.00001   0.00014  -0.00059   0.00187
  53        3PZ        -0.00474   0.00000   0.00000   0.00000   0.00000
  54 10  H  1S          0.00000   0.00000   0.00000   0.00000  -0.00002
  55        2S          0.00000   0.00000  -0.00005   0.00026  -0.00117
  56 11  C  1S          0.00000   0.00000   0.00000   0.00000   0.00000
  57        2S          0.00000   0.00000   0.00000   0.00000   0.00000
  58        2PX         0.00000   0.00000   0.00000   0.00000   0.00000
  59        2PY         0.00000   0.00000   0.00000   0.00000  -0.00002
  60        2PZ        -0.00075   0.00000   0.00000   0.00000   0.00000
  61        3S          0.00000   0.00000   0.00000  -0.00006  -0.00057
  62        3PX         0.00000   0.00000  -0.00012  -0.00009  -0.00030
  63        3PY         0.00000   0.00000  -0.00004   0.00009  -0.00153
  64        3PZ        -0.00846   0.00000   0.00000   0.00000   0.00000
  65 12  H  1S          0.00000   0.00000   0.00000   0.00000   0.00000
  66        2S          0.00000   0.00000   0.00000   0.00000   0.00002
                          36        37        38        39        40
  36        2PX         0.33591
  37        2PY         0.00000   0.32194
  38        2PZ         0.00000   0.00000   0.24490
  39        3S          0.00000   0.00000   0.00000   0.69883
  40        3PX         0.08689   0.00000   0.00000   0.00000   0.09067
  41        3PY         0.00000   0.11279   0.00000   0.00000   0.00000
  42        3PZ         0.00000   0.00000   0.12861   0.00000   0.00000
  43 8   H  1S          0.00000   0.06407   0.00000   0.06358   0.00000
  44        2S          0.00000   0.04438   0.00000   0.05212   0.00000
  45 9   C  1S         -0.00076  -0.00026   0.00000   0.00321   0.00065
  46        2S          0.00949   0.00318   0.00000   0.00744   0.00818
  47        2PX         0.03101   0.01434   0.00000   0.03322   0.01087
  48        2PY         0.01521   0.00104   0.00000   0.01036   0.01297
  49        2PZ         0.00000   0.00000   0.00842   0.00000   0.00000
  50        3S          0.03216   0.01143   0.00000  -0.04745   0.02252
  51        3PX         0.01544   0.00984   0.00000   0.02400   0.00084
  52        3PY         0.00910  -0.00131   0.00000   0.00702   0.01040
  53        3PZ         0.00000   0.00000   0.02709   0.00000   0.00000
  54 10  H  1S         -0.00015   0.00000   0.00000  -0.00338  -0.00377
  55        2S         -0.00474  -0.00001   0.00000  -0.01489  -0.01238
  56 11  C  1S          0.00000   0.00000   0.00000  -0.00006   0.00009
  57        2S         -0.00001  -0.00001   0.00000  -0.00057  -0.00061
  58        2PX        -0.00001  -0.00001   0.00000  -0.00081  -0.00034
  59        2PY        -0.00004  -0.00008   0.00000  -0.00253  -0.00220
  60        2PZ         0.00000   0.00000   0.00000   0.00000   0.00000
  61        3S         -0.00086  -0.00247   0.00000   0.00040  -0.00464
  62        3PX        -0.00032  -0.00034   0.00000  -0.00257  -0.00010
  63        3PY        -0.00215  -0.00413   0.00000  -0.01184  -0.00704
  64        3PZ         0.00000   0.00000  -0.00048   0.00000   0.00000
  65 12  H  1S          0.00000   0.00000   0.00000   0.00005   0.00008
  66        2S          0.00006   0.00006   0.00000   0.00101   0.00122
                          41        42        43        44        45
  41        3PY         0.15310
  42        3PZ         0.00000   0.24289
  43 8   H  1S          0.07246   0.00000   0.18997
  44        2S          0.07547   0.00000   0.09488   0.12501
  45 9   C  1S          0.00183   0.00000   0.00000   0.00026   2.03539
  46        2S          0.00444   0.00000  -0.00002  -0.00117   0.02305
  47        2PX         0.01372   0.00000  -0.00005  -0.00143   0.00000
  48        2PY        -0.00448   0.00000  -0.00010  -0.00332   0.00000
  49        2PZ         0.00000   0.02709   0.00000   0.00000   0.00000
  50        3S          0.00849   0.00000  -0.00338  -0.01489  -0.07979
  51        3PX         0.01102   0.00000  -0.00156  -0.00383   0.00000
  52        3PY        -0.00867   0.00000  -0.00229  -0.00860   0.00000
  53        3PZ         0.00000   0.07558   0.00000   0.00000   0.00000
  54 10  H  1S         -0.00007   0.00000   0.00000  -0.00052  -0.00131
  55        2S         -0.00005   0.00000  -0.00052  -0.00267  -0.00064
  56 11  C  1S         -0.00009   0.00000   0.00000   0.00000   0.00000
  57        2S         -0.00121   0.00000   0.00000   0.00002  -0.00014
  58        2PX        -0.00039   0.00000   0.00000   0.00001   0.00000
  59        2PY        -0.00400   0.00000   0.00000   0.00012  -0.00103
  60        2PZ         0.00000  -0.00048   0.00000   0.00000   0.00000
  61        3S         -0.00978   0.00000   0.00005   0.00101   0.00321
  62        3PX        -0.00104   0.00000   0.00001   0.00016   0.00000
  63        3PY        -0.01343   0.00000   0.00014   0.00232   0.00248
  64        3PZ         0.00000  -0.00474   0.00000   0.00000   0.00000
  65 12  H  1S          0.00007   0.00000   0.00000   0.00000   0.00000
  66        2S          0.00126   0.00000   0.00000  -0.00005   0.00026
                          46        47        48        49        50
  46        2S          0.12635
  47        2PX         0.00000   0.32543
  48        2PY         0.00000   0.00000   0.33242
  49        2PZ         0.00000   0.00000   0.00000   0.24490
  50        3S          0.17313   0.00000   0.00000   0.00000   0.69883
  51        3PX         0.00000   0.10632   0.00000   0.00000   0.00000
  52        3PY         0.00000   0.00000   0.09337   0.00000   0.00000
  53        3PZ         0.00000   0.00000   0.00000   0.12861   0.00000
  54 10  H  1S          0.01179   0.04805   0.01602   0.00000   0.06358
  55        2S          0.00808   0.03328   0.01109   0.00000   0.05212
  56 11  C  1S         -0.00014   0.00000  -0.00103   0.00000   0.00321
  57        2S          0.00213   0.00000   0.01267   0.00000   0.00744
  58        2PX         0.00000   0.00084   0.00000   0.00000   0.00000
  59        2PY         0.01267   0.00000   0.06076   0.00000   0.04359
  60        2PZ         0.00000   0.00000   0.00000   0.00842   0.00000
  61        3S          0.00744   0.00000   0.04359   0.00000  -0.04745
  62        3PX         0.00000   0.00049   0.00000   0.00000   0.00000
  63        3PY         0.01262   0.00000   0.03259   0.00000   0.03102
  64        3PZ         0.00000   0.00000   0.00000   0.02709   0.00000
  65 12  H  1S         -0.00002  -0.00003  -0.00012   0.00000  -0.00338
  66        2S         -0.00117  -0.00096  -0.00380   0.00000  -0.01489
                          51        52        53        54        55
  51        3PX         0.13749
  52        3PY         0.00000   0.10628
  53        3PZ         0.00000   0.00000   0.24289
  54 10  H  1S          0.05435   0.01812   0.00000   0.18997
  55        2S          0.05660   0.01887   0.00000   0.09488   0.12501
  56 11  C  1S          0.00000   0.00248   0.00000   0.00000   0.00026
  57        2S          0.00000   0.01262   0.00000  -0.00002  -0.00117
  58        2PX         0.00049   0.00000   0.00000  -0.00003  -0.00096
  59        2PY         0.00000   0.03259   0.00000  -0.00012  -0.00380
  60        2PZ         0.00000   0.00000   0.02709   0.00000   0.00000
  61        3S          0.00000   0.03102   0.00000  -0.00338  -0.01489
  62        3PX        -0.00271   0.00000   0.00000  -0.00044  -0.00244
  63        3PY         0.00000   0.01631   0.00000  -0.00341  -0.00999
  64        3PZ         0.00000   0.00000   0.07558   0.00000   0.00000
  65 12  H  1S         -0.00044  -0.00341   0.00000   0.00000  -0.00052
  66        2S         -0.00244  -0.00999   0.00000  -0.00052  -0.00267
                          56        57        58        59        60
  56 11  C  1S          2.03539
  57        2S          0.02305   0.12635
  58        2PX         0.00000   0.00000   0.32543
  59        2PY         0.00000   0.00000   0.00000   0.33242
  60        2PZ         0.00000   0.00000   0.00000   0.00000   0.24490
  61        3S         -0.07979   0.17313   0.00000   0.00000   0.00000
  62        3PX         0.00000   0.00000   0.10632   0.00000   0.00000
  63        3PY         0.00000   0.00000   0.00000   0.09337   0.00000
  64        3PZ         0.00000   0.00000   0.00000   0.00000   0.12861
  65 12  H  1S         -0.00131   0.01179   0.04805   0.01602   0.00000
  66        2S         -0.00064   0.00808   0.03328   0.01109   0.00000
                          61        62        63        64        65
  61        3S          0.69883
  62        3PX         0.00000   0.13749
  63        3PY         0.00000   0.00000   0.10628
  64        3PZ         0.00000   0.00000   0.00000   0.24289
  65 12  H  1S          0.06358   0.05435   0.01812   0.00000   0.18997
  66        2S          0.05212   0.05660   0.01887   0.00000   0.09488
                          66
  66        2S          0.12501
     Gross orbital populations:
                           1
   1 1   H  1S          0.48000
   2        2S          0.33396
   3 2   C  1S          1.98629
   4        2S          0.40439
   5        2PX         0.62948
   6        2PY         0.60506
   7        2PZ         0.44280
   8        3S          0.90387
   9        3PX         0.25000
  10        3PY         0.40696
  11        3PZ         0.55720
  12 3   C  1S          1.98629
  13        2S          0.40439
  14        2PX         0.61117
  15        2PY         0.62337
  16        2PZ         0.44280
  17        3S          0.90387
  18        3PX         0.36772
  19        3PY         0.28924
  20        3PZ         0.55720
  21 4   H  1S          0.48000
  22        2S          0.33396
  23 5   C  1S          1.98629
  24        2S          0.40439
  25        2PX         0.61117
  26        2PY         0.62337
  27        2PZ         0.44280
  28        3S          0.90387
  29        3PX         0.36772
  30        3PY         0.28924
  31        3PZ         0.55720
  32 6   H  1S          0.48000
  33        2S          0.33396
  34 7   C  1S          1.98629
  35        2S          0.40439
  36        2PX         0.62948
  37        2PY         0.60506
  38        2PZ         0.44280
  39        3S          0.90387
  40        3PX         0.25000
  41        3PY         0.40696
  42        3PZ         0.55720
  43 8   H  1S          0.48000
  44        2S          0.33396
  45 9   C  1S          1.98629
  46        2S          0.40439
  47        2PX         0.61117
  48        2PY         0.62337
  49        2PZ         0.44280
  50        3S          0.90387
  51        3PX         0.36772
  52        3PY         0.28924
  53        3PZ         0.55720
  54 10  H  1S          0.48000
  55        2S          0.33396
  56 11  C  1S          1.98629
  57        2S          0.40439
  58        2PX         0.61117
  59        2PY         0.62337
  60        2PZ         0.44280
  61        3S          0.90387
  62        3PX         0.36772
  63        3PY         0.28924
  64        3PZ         0.55720
  65 12  H  1S          0.48000
  66        2S          0.33396
          Condensed to atoms (all electrons):
              1          2          3          4          5          6
     1  H    0.504745   0.390005  -0.040378  -0.003707   0.003824  -0.000051
     2  C    0.390005   5.139338   0.457890  -0.040378  -0.081385   0.003824
     3  C   -0.040378   0.457890   5.139338   0.390005   0.457890  -0.040378
     4  H   -0.003707  -0.040378   0.390005   0.504745  -0.040378  -0.003707
     5  C    0.003824  -0.081385   0.457890  -0.040378   5.139338   0.390005
     6  H   -0.000051   0.003824  -0.040378  -0.003707   0.390005   0.504745
     7  C   -0.000167  -0.023039  -0.081385   0.003824   0.457890  -0.040378
     8  H    0.000002  -0.000167   0.003824  -0.000051  -0.040378  -0.003707
     9  C    0.003824  -0.081385  -0.023039  -0.000167  -0.081385   0.003824
    10  H   -0.000051   0.003824  -0.000167   0.000002   0.003824  -0.000051
    11  C   -0.040378   0.457890  -0.081385   0.003824  -0.023039  -0.000167
    12  H   -0.003707  -0.040378   0.003824  -0.000051  -0.000167   0.000002
              7          8          9         10         11         12
     1  H   -0.000167   0.000002   0.003824  -0.000051  -0.040378  -0.003707
     2  C   -0.023039  -0.000167  -0.081385   0.003824   0.457890  -0.040378
     3  C   -0.081385   0.003824  -0.023039  -0.000167  -0.081385   0.003824
     4  H    0.003824  -0.000051  -0.000167   0.000002   0.003824  -0.000051
     5  C    0.457890  -0.040378  -0.081385   0.003824  -0.023039  -0.000167
     6  H   -0.040378  -0.003707   0.003824  -0.000051  -0.000167   0.000002
     7  C    5.139338   0.390005   0.457890  -0.040378  -0.081385   0.003824
     8  H    0.390005   0.504745  -0.040378  -0.003707   0.003824  -0.000051
     9  C    0.457890  -0.040378   5.139338   0.390005   0.457890  -0.040378
    10  H   -0.040378  -0.003707   0.390005   0.504745  -0.040378  -0.003707
    11  C   -0.081385   0.003824   0.457890  -0.040378   5.139338   0.390005
    12  H    0.003824  -0.000051  -0.040378  -0.003707   0.390005   0.504745
 Mulliken atomic charges:
              1
     1  H    0.186040
     2  C   -0.186040
     3  C   -0.186040
     4  H    0.186040
     5  C   -0.186040
     6  H    0.186040
     7  C   -0.186040
     8  H    0.186040
     9  C   -0.186040
    10  H    0.186040
    11  C   -0.186040
    12  H    0.186040
 Sum of Mulliken atomic charges =   0.00000
 Mulliken charges with hydrogens summed into heavy atoms:
              1
     2  C    0.000000
     3  C    0.000000
     5  C    0.000000
     7  C    0.000000
     9  C    0.000000
    11  C    0.000000
 Sum of Mulliken charges with hydrogens summed into heavy atoms =   0.00000
 N-N= 2.031383991795D+02 E-N=-9.406256406214D+02  KE= 2.289168767296D+02
 Symmetry AG   KE= 7.373855245134D+01
 Symmetry B1G  KE= 3.728381428657D+01
 Symmetry B2G  KE= 2.229160926520D+00
 Symmetry B3G  KE= 2.229160926520D+00
 Symmetry AU   KE=-4.007081102579D-16
 Symmetry B1U  KE= 1.863986945675D+00
 Symmetry B2U  KE= 7.144023112280D+01
 Symmetry B3U  KE= 4.013197007022D+01
 Orbital energies and kinetic energies (alpha):
                                 1                 2
   1         (B1U)--O        -10.128415         15.810617
   2         (E2G)--O        -10.127768         15.798894
   3         (E2G)--O        -10.127768         15.798894
   4         (E1U)--O        -10.126632         15.808339
   5         (E1U)--O        -10.126632         15.808339
   6         (A1G)--O        -10.125581         15.816349
   7         (A1G)--O         -0.855310          1.473064
   8         (E1U)--O         -0.746118          1.598338
   9         (E1U)--O         -0.746118          1.598338
  10         (E2G)--O         -0.604771          1.460882
  11         (E2G)--O         -0.604771          1.460882
  12         (A1G)--O         -0.528306          0.937956
  13         (B1U)--O         -0.460778          1.295837
  14         (B2U)--O         -0.452600          1.452323
  15         (E1U)--O         -0.426119          1.206984
  16         (E1U)--O         -0.426119          1.206984
  17         (A2U)--O         -0.366079          0.931993
  18         (E2G)--O         -0.346180          1.382131
  19         (E2G)--O         -0.346180          1.382131
  20         (E1G)--O         -0.251009          1.114580
  21         (E1G)--O         -0.251009          1.114580
  22         (E2U)--V          0.005174          1.373033
  23         (E2U)--V          0.005174          1.373033
  24         (A1G)--V          0.106585          0.976596
  25         (E1U)--V          0.164374          1.062666
  26         (E1U)--V          0.164374          1.062666
  27         (B2G)--V          0.165325          1.683030
  28         (E2G)--V          0.206494          1.435280
  29         (E2G)--V          0.206494          1.435280
  30         (B1U)--V          0.212559          1.338785
  31         (E2G)--V          0.324409          1.739156
  32         (E2G)--V          0.324409          1.739156
  33         (E1U)--V          0.336977          1.672114
  34         (E1U)--V          0.336977          1.672114
  35         (B1U)--V          0.576399          3.210030
  36         (A2G)--V          0.577214          2.119126
  37         (B2U)--V          0.667491          1.944645
  38         (A1G)--V          0.689194          1.940199
  39         (A2U)--V          0.695989          2.491343
  40         (E2G)--V          0.738800          2.752691
  41         (E2G)--V          0.738800          2.752691
  42         (E1G)--V          0.787342          2.570294
  43         (E1G)--V          0.787342          2.570294
  44         (E1U)--V          0.804536          2.807893
  45         (E1U)--V          0.804536          2.807893
  46         (E2U)--V          0.832406          2.621175
  47         (E2U)--V          0.832406          2.621175
  48         (A1G)--V          0.884158          2.462657
  49         (B2G)--V          0.906322          2.576135
  50         (B1U)--V          0.971265          3.308175
  51         (E2G)--V          1.010275          3.105384
  52         (E2G)--V          1.010275          3.105384
  53         (A2G)--V          1.108763          3.246444
  54         (E1U)--V          1.115368          3.123733
  55         (E1U)--V          1.115368          3.123733
  56         (E1U)--V          1.300689          2.596988
  57         (E1U)--V          1.300689          2.596988
  58         (A1G)--V          1.328991          3.128342
  59         (B1U)--V          1.451891          2.611725
  60         (E2G)--V          1.465542          2.694873
  61         (E2G)--V          1.465542          2.694873
  62         (E1U)--V          1.546385          3.204170
  63         (E1U)--V          1.546385          3.204170
  64         (E2G)--V          1.889899          3.335703
  65         (E2G)--V          1.889899          3.335703
  66         (B1U)--V          2.473803          3.604295
 Total kinetic energy from orbitals= 2.289168767296D+02

 Test job not archived.
 1\1\GINC-R2I1N11\SP\RB3LYP\3-21G\C6H6\NOBOYLE\04-Nov-2012\0\\# RB3LYP/
 3-21G pop=full iop(3/33=1,3/36=-1) guess=read geom=allcheck\\_Benzene\
 \0,1\H,0,0.,0.,0.0040897109\C,0,0.,0.,1.0881082084\C,0,1.2104365982,0.
 ,1.7869541042\H,0,2.1492241552,0.,1.2449448555\C,0,1.2104365982,0.,3.1
 846458958\H,0,2.1492241552,0.,3.7266551445\C,0,0.,0.,3.8834917916\H,0,
 0.,0.,4.9675102891\C,0,-1.2104365982,0.,3.1846458958\H,0,-2.1492241552
 ,0.,3.7266551445\C,0,-1.2104365982,0.,1.7869541042\H,0,-2.1492241552,0
 .,1.2449448555\\Version=EM64L-G09RevB.01\State=1-A1G\HF=-230.9757727\R
 MSD=4.514e-11\PG=D06H [3C2'(H1C1.C1H1)]\\@


 THEORY:  SUPPOSITION WHICH HAS SCIENTIFIC BASIS,
          BUT NOT EXPERIMENTALLY PROVEN.
 FACT:    A THEORY WHICH HAS BEEN PROVEN BY ENOUGH 
          MONEY TO PAY FOR THE EXPERIMENTS.

                          --  THE WIZARD OF ID
 Job cpu time:  0 days  0 hours  0 minutes 20.6 seconds.
 File lengths (MBytes):  RWF=      9 Int=      0 D2E=      0 Chk=      2 Scr=      1
 Normal termination of Gaussian 09 at Sun Nov  4 13:02:55 2012.
