 Entering Link 1 = C:\G03W\l1.exe PID=      3468.
  
 Copyright (c) 1988,1990,1992,1993,1995,1998,2003,2004,2007, Gaussian, Inc.
                  All Rights Reserved.
  
 This is the Gaussian(R) 03 program.  It is based on the
 the Gaussian(R) 98 system (copyright 1998, Gaussian, Inc.),
 the Gaussian(R) 94 system (copyright 1995, Gaussian, Inc.),
 the Gaussian 92(TM) system (copyright 1992, Gaussian, Inc.),
 the Gaussian 90(TM) system (copyright 1990, Gaussian, Inc.),
 the Gaussian 88(TM) system (copyright 1988, Gaussian, Inc.),
 the Gaussian 86(TM) system (copyright 1986, Carnegie Mellon
 University), and the Gaussian 82(TM) system (copyright 1983,
 Carnegie Mellon University). Gaussian is a federally registered
 trademark of Gaussian, Inc.
  
 This software contains proprietary and confidential information,
 including trade secrets, belonging to Gaussian, Inc.
  
 This software is provided under written license and may be
 used, copied, transmitted, or stored only in accord with that
 written license.
  
 The following legend is applicable only to US Government
 contracts under FAR:
  
                    RESTRICTED RIGHTS LEGEND
  
 Use, reproduction and disclosure by the US Government is
 subject to restrictions as set forth in subparagraphs (a)
 and (c) of the Commercial Computer Software - Restricted
 Rights clause in FAR 52.227-19.
  
 Gaussian, Inc.
 340 Quinnipiac St., Bldg. 40, Wallingford CT 06492
  
  
 ---------------------------------------------------------------
 Warning -- This program may not be used in any manner that
 competes with the business of Gaussian, Inc. or will provide
 assistance to any competitor of Gaussian, Inc.  The licensee
 of this program is prohibited from giving any competitor of
 Gaussian, Inc. access to this program.  By using this program,
 the user acknowledges that Gaussian, Inc. is engaged in the
 business of creating and licensing software in the field of
 computational chemistry and represents and warrants to the
 licensee that it is not a competitor of Gaussian, Inc. and that
 it will not use this program in any manner prohibited above.
 ---------------------------------------------------------------
  

 Cite this work as:
 Gaussian 03, Revision E.01,
 M. J. Frisch, G. W. Trucks, H. B. Schlegel, G. E. Scuseria, 
 M. A. Robb, J. R. Cheeseman, J. A. Montgomery, Jr., T. Vreven, 
 K. N. Kudin, J. C. Burant, J. M. Millam, S. S. Iyengar, J. Tomasi, 
 V. Barone, B. Mennucci, M. Cossi, G. Scalmani, N. Rega, 
 G. A. Petersson, H. Nakatsuji, M. Hada, M. Ehara, K. Toyota, 
 R. Fukuda, J. Hasegawa, M. Ishida, T. Nakajima, Y. Honda, O. Kitao, 
 H. Nakai, M. Klene, X. Li, J. E. Knox, H. P. Hratchian, J. B. Cross, 
 V. Bakken, C. Adamo, J. Jaramillo, R. Gomperts, R. E. Stratmann, 
 O. Yazyev, A. J. Austin, R. Cammi, C. Pomelli, J. W. Ochterski, 
 P. Y. Ayala, K. Morokuma, G. A. Voth, P. Salvador, J. J. Dannenberg, 
 V. G. Zakrzewski, S. Dapprich, A. D. Daniels, M. C. Strain, 
 O. Farkas, D. K. Malick, A. D. Rabuck, K. Raghavachari, 
 J. B. Foresman, J. V. Ortiz, Q. Cui, A. G. Baboul, S. Clifford, 
 J. Cioslowski, B. B. Stefanov, G. Liu, A. Liashenko, P. Piskorz, 
 I. Komaromi, R. L. Martin, D. J. Fox, T. Keith, M. A. Al-Laham, 
 C. Y. Peng, A. Nanayakkara, M. Challacombe, P. M. W. Gill, 
 B. Johnson, W. Chen, M. W. Wong, C. Gonzalez, and J. A. Pople, 
 Gaussian, Inc., Wallingford CT, 2004.
 
 ******************************************
 Gaussian 03:  IA32W-G03RevE.01 11-Sep-2007
                29-May-2009 
 ******************************************
 %chk=benzene_trip.chk
 ------------------------
 # UB3LYP/3-21G opt nosym
 ------------------------
 1/14=-1,18=20,26=3,38=1/1,3;
 2/9=110,15=1,17=6,18=5,40=1/2;
 3/5=5,11=2,16=1,25=1,30=1,74=-5/1,2,3;
 4/7=2/1;
 5/5=2,38=5/2;
 6/7=2,8=2,9=2,10=2,28=1/1;
 7/30=1/1,2,3,16;
 1/14=-1,18=20/3(3);
 2/9=110,15=1/2;
 6/7=2,8=2,9=2,10=2,19=2,28=1/1;
 99//99;
 2/9=110,15=1/2;
 3/5=5,11=2,16=1,25=1,30=1,74=-5/1,2,3;
 4/5=5,7=2,16=3/1;
 5/5=2,38=5/2;
 7/30=1/1,2,3,16;
 1/14=-1,18=20/3(-5);
 2/9=110,15=1/2;
 6/7=2,8=2,9=2,10=2,19=2,28=1/1;
 99/9=1/99;
 --------
 _Benzene
 --------
 Symbolic Z-matrix:
 Charge =  1 Multiplicity = 2
 H
 C                    1    r2
 C                    2    r3       1    a3
 H                    3    r2       2    a3       1    d4       0
 C                    3    r3       2    a3       1    d5       0
 H                    5    r2       3    a3       2    d5       0
 C                    5    r3       3    a3       2    d4       0
 H                    7    r2       5    a3       3    d5       0
 C                    7    r3       5    a3       3    d4       0
 H                    9    r2       7    a3       5    d5       0
 C                    9    r3       7    a3       5    d4       0
 H                    11   r2       9    a3       7    d5       0
       Variables:
  r2                    1.0947                   
  r3                    1.3911                   
  a3                  120.                       
  d4                  360.                       
  d5                  180.                       
 

 GradGradGradGradGradGradGradGradGradGradGradGradGradGradGradGradGradGrad
 Berny optimization.
 Initialization pass.
                           ----------------------------
                           !    Initial Parameters    !
                           ! (Angstroms and Degrees)  !
 --------------------------                            --------------------------
 ! Name  Definition              Value          Derivative Info.                !
 --------------------------------------------------------------------------------
 ! R1    R(1,2)                  1.0947         estimate D2E/DX2                !
 ! R2    R(2,3)                  1.3911         estimate D2E/DX2                !
 ! R3    R(2,11)                 1.3911         estimate D2E/DX2                !
 ! R4    R(3,4)                  1.0947         estimate D2E/DX2                !
 ! R5    R(3,5)                  1.3911         estimate D2E/DX2                !
 ! R6    R(5,6)                  1.0947         estimate D2E/DX2                !
 ! R7    R(5,7)                  1.3911         estimate D2E/DX2                !
 ! R8    R(7,8)                  1.0947         estimate D2E/DX2                !
 ! R9    R(7,9)                  1.3911         estimate D2E/DX2                !
 ! R10   R(9,10)                 1.0947         estimate D2E/DX2                !
 ! R11   R(9,11)                 1.3911         estimate D2E/DX2                !
 ! R12   R(11,12)                1.0947         estimate D2E/DX2                !
 ! A1    A(1,2,3)              120.0            estimate D2E/DX2                !
 ! A2    A(1,2,11)             120.0            estimate D2E/DX2                !
 ! A3    A(3,2,11)             120.0            estimate D2E/DX2                !
 ! A4    A(2,3,4)              120.0            estimate D2E/DX2                !
 ! A5    A(2,3,5)              120.0            estimate D2E/DX2                !
 ! A6    A(4,3,5)              120.0            estimate D2E/DX2                !
 ! A7    A(3,5,6)              120.0            estimate D2E/DX2                !
 ! A8    A(3,5,7)              120.0            estimate D2E/DX2                !
 ! A9    A(6,5,7)              120.0            estimate D2E/DX2                !
 ! A10   A(5,7,8)              120.0            estimate D2E/DX2                !
 ! A11   A(5,7,9)              120.0            estimate D2E/DX2                !
 ! A12   A(8,7,9)              120.0            estimate D2E/DX2                !
 ! A13   A(7,9,10)             120.0            estimate D2E/DX2                !
 ! A14   A(7,9,11)             120.0            estimate D2E/DX2                !
 ! A15   A(10,9,11)            120.0            estimate D2E/DX2                !
 ! A16   A(2,11,9)             120.0            estimate D2E/DX2                !
 ! A17   A(2,11,12)            120.0            estimate D2E/DX2                !
 ! A18   A(9,11,12)            120.0            estimate D2E/DX2                !
 ! D1    D(1,2,3,4)              0.0            estimate D2E/DX2                !
 ! D2    D(1,2,3,5)            180.0            estimate D2E/DX2                !
 ! D3    D(11,2,3,4)           180.0            estimate D2E/DX2                !
 ! D4    D(11,2,3,5)             0.0            estimate D2E/DX2                !
 ! D5    D(1,2,11,9)           180.0            estimate D2E/DX2                !
 ! D6    D(1,2,11,12)            0.0            estimate D2E/DX2                !
 ! D7    D(3,2,11,9)             0.0            estimate D2E/DX2                !
 ! D8    D(3,2,11,12)          180.0            estimate D2E/DX2                !
 ! D9    D(2,3,5,6)            180.0            estimate D2E/DX2                !
 ! D10   D(2,3,5,7)              0.0            estimate D2E/DX2                !
 ! D11   D(4,3,5,6)              0.0            estimate D2E/DX2                !
 ! D12   D(4,3,5,7)            180.0            estimate D2E/DX2                !
 ! D13   D(3,5,7,8)            180.0            estimate D2E/DX2                !
 ! D14   D(3,5,7,9)              0.0            estimate D2E/DX2                !
 ! D15   D(6,5,7,8)              0.0            estimate D2E/DX2                !
 ! D16   D(6,5,7,9)            180.0            estimate D2E/DX2                !
 ! D17   D(5,7,9,10)           180.0            estimate D2E/DX2                !
 ! D18   D(5,7,9,11)             0.0            estimate D2E/DX2                !
 ! D19   D(8,7,9,10)             0.0            estimate D2E/DX2                !
 ! D20   D(8,7,9,11)           180.0            estimate D2E/DX2                !
 ! D21   D(7,9,11,2)             0.0            estimate D2E/DX2                !
 ! D22   D(7,9,11,12)          180.0            estimate D2E/DX2                !
 ! D23   D(10,9,11,2)          180.0            estimate D2E/DX2                !
 ! D24   D(10,9,11,12)           0.0            estimate D2E/DX2                !
 --------------------------------------------------------------------------------
 Trust Radius=3.00D-01 FncErr=1.00D-07 GrdErr=1.00D-06
 Number of steps in this run=  64 maximum allowed number of steps= 100.
 GradGradGradGradGradGradGradGradGradGradGradGradGradGradGradGradGradGrad

                          Input orientation:                          
 ---------------------------------------------------------------------
 Center     Atomic     Atomic              Coordinates (Angstroms)
 Number     Number      Type              X           Y           Z
 ---------------------------------------------------------------------
    1          1             0        0.000000    0.000000    0.000000
    2          6             0        0.000000    0.000000    1.094700
    3          6             0        1.204728    0.000000    1.790250
    4          1             0        2.152766    0.000000    1.242900
    5          6             0        1.204728    0.000000    3.181350
    6          1             0        2.152766    0.000000    3.728700
    7          6             0        0.000000    0.000000    3.876900
    8          1             0        0.000000    0.000000    4.971600
    9          6             0       -1.204728    0.000000    3.181350
   10          1             0       -2.152766    0.000000    3.728700
   11          6             0       -1.204728    0.000000    1.790250
   12          1             0       -2.152766    0.000000    1.242900
 ---------------------------------------------------------------------
                    Distance matrix (angstroms):
                    1          2          3          4          5
     1  H    0.000000
     2  C    1.094700   0.000000
     3  C    2.157861   1.391100   0.000000
     4  H    2.485800   2.157861   1.094700   0.000000
     5  C    3.401817   2.409456   1.391100   2.157861   0.000000
     6  H    4.305532   3.401817   2.157861   2.485800   1.094700
     7  C    3.876900   2.782200   2.409456   3.401817   1.391100
     8  H    4.971600   3.876900   3.401817   4.305532   2.157861
     9  C    3.401817   2.409456   2.782200   3.876900   2.409456
    10  H    4.305532   3.401817   3.876900   4.971600   3.401817
    11  C    2.157861   1.391100   2.409456   3.401817   2.782200
    12  H    2.485800   2.157861   3.401817   4.305532   3.876900
                    6          7          8          9         10
     6  H    0.000000
     7  C    2.157861   0.000000
     8  H    2.485800   1.094700   0.000000
     9  C    3.401817   1.391100   2.157861   0.000000
    10  H    4.305532   2.157861   2.485800   1.094700   0.000000
    11  C    3.876900   2.409456   3.401817   1.391100   2.157861
    12  H    4.971600   3.401817   4.305532   2.157861   2.485800
                   11         12
    11  C    0.000000
    12  H    1.094700   0.000000
 Symmetry turned off by external request.
 Stoichiometry    C6H6(1+,2)
 Framework group  D6H[3C2'(HC.CH)]
 Deg. of freedom     2
 Full point group                 D6H
 Rotational constants (GHZ):      5.7202965      5.7202965      2.8601482
 Standard basis: 3-21G (6D, 7F)
 Integral buffers will be    262144 words long.
 Raffenetti 2 integral format.
 Two-electron integral symmetry is turned off.
    66 basis functions,   108 primitive gaussians,    66 cartesian basis functions
    21 alpha electrons       20 beta electrons
       nuclear repulsion energy       203.6546548248 Hartrees.
 NAtoms=   12 NActive=   12 NUniq=   12 SFac= 7.50D-01 NAtFMM=   80 NAOKFM=F Big=F
 One-electron integrals computed using PRISM.
 NBasis=    66 RedAO= T  NBF=    66
 NBsUse=    66 1.00D-06 NBFU=    66
 Harris functional with IExCor=  402 diagonalized for initial guess.
 ExpMin= 1.83D-01 ExpMax= 1.72D+02 ExpMxC= 1.72D+02 IAcc=1 IRadAn=         1 AccDes= 1.00D-06
 HarFok:  IExCor= 402 AccDes= 1.00D-06 IRadAn=         1 IDoV=1
 ScaDFX=  1.000000  1.000000  1.000000  1.000000
 <S**2> of initial guess= 0.7500
 Requested convergence on RMS density matrix=1.00D-08 within 128 cycles.
 Requested convergence on MAX density matrix=1.00D-06.
 Requested convergence on             energy=1.00D-06.
 No special actions if energy rises.
 Integral accuracy reduced to 1.0D-05 until final iterations.
 Initial convergence to 1.0D-05 achieved.  Increase integral accuracy.
 SCF Done:  E(UB+HF-LYP) =  -230.635714175     A.U. after   14 cycles
             Convg  =    0.2196D-08             -V/T =  2.0081
             S**2   =   0.7637
 Annihilation of the first spin contaminant:
 S**2 before annihilation     0.7637,   after     0.7501

 **********************************************************************

            Population analysis using the SCF density.

 **********************************************************************

 Alpha  occ. eigenvalues --  -10.39098 -10.39091 -10.38976 -10.38946 -10.35602
 Alpha  occ. eigenvalues --  -10.35581  -1.11676  -1.00946  -0.98517  -0.84578
 Alpha  occ. eigenvalues --   -0.84500  -0.75967  -0.70316  -0.68101  -0.66767
 Alpha  occ. eigenvalues --   -0.64836  -0.62186  -0.57865  -0.57520  -0.51958
 Alpha  occ. eigenvalues --   -0.48737
 Alpha virt. eigenvalues --   -0.25414  -0.22618  -0.09442  -0.07699  -0.04056
 Alpha virt. eigenvalues --   -0.02975  -0.00104   0.01036   0.01918   0.09778
 Alpha virt. eigenvalues --    0.10343   0.11248   0.11847   0.34372   0.35557
 Alpha virt. eigenvalues --    0.44034   0.45125   0.46407   0.50742   0.51304
 Alpha virt. eigenvalues --    0.53728   0.55978   0.57796   0.58046   0.58933
 Alpha virt. eigenvalues --    0.60957   0.65221   0.68099   0.74705   0.78341
 Alpha virt. eigenvalues --    0.79660   0.88926   0.88966   0.90064   1.08530
 Alpha virt. eigenvalues --    1.08974   1.09730   1.24508   1.24795   1.26043
 Alpha virt. eigenvalues --    1.28987   1.30707   1.64214   1.65030   2.24160
  Beta  occ. eigenvalues --  -10.38669 -10.38661 -10.38544 -10.38516 -10.35754
  Beta  occ. eigenvalues --  -10.35734  -1.10508  -0.98900  -0.98231  -0.84000
  Beta  occ. eigenvalues --   -0.83539  -0.75688  -0.69849  -0.67656  -0.66265
  Beta  occ. eigenvalues --   -0.64827  -0.58963  -0.57652  -0.57241  -0.48120
  Beta virt. eigenvalues --   -0.42660  -0.21508  -0.21278  -0.09258  -0.05427
  Beta virt. eigenvalues --   -0.03798  -0.02914   0.00752   0.01211   0.02299
  Beta virt. eigenvalues --    0.10418   0.10533   0.11709   0.12204   0.35362
  Beta virt. eigenvalues --    0.35899   0.44333   0.46543   0.46799   0.51165
  Beta virt. eigenvalues --    0.51644   0.56390   0.56489   0.58110   0.58294
  Beta virt. eigenvalues --    0.61191   0.61371   0.65417   0.69139   0.74905
  Beta virt. eigenvalues --    0.78565   0.79700   0.89114   0.89225   0.90120
  Beta virt. eigenvalues --    1.08978   1.09105   1.10354   1.24774   1.25315
  Beta virt. eigenvalues --    1.26200   1.30630   1.30840   1.65402   1.65726
  Beta virt. eigenvalues --    2.25091
          Condensed to atoms (all electrons):
              1          2          3          4          5          6
     1  H    0.389897   0.384262  -0.031325  -0.002760   0.003043  -0.000026
     2  C    0.384262   5.163214   0.432471  -0.028399  -0.096777   0.002919
     3  C   -0.031325   0.432471   5.240814   0.377315   0.323960  -0.034108
     4  H   -0.002760  -0.028399   0.377315   0.379141  -0.034108  -0.002537
     5  C    0.003043  -0.096777   0.323960  -0.034108   5.240814   0.377315
     6  H   -0.000026   0.002919  -0.034108  -0.002537   0.377315   0.379141
     7  C   -0.000192  -0.010587  -0.096777   0.002919   0.432471  -0.028399
     8  H    0.000000  -0.000192   0.003043  -0.000026  -0.031325  -0.002760
     9  C    0.003043  -0.096777  -0.009627  -0.000221  -0.087256   0.002967
    10  H   -0.000026   0.002919  -0.000221   0.000001   0.002967  -0.000024
    11  C   -0.031325   0.432471  -0.087256   0.002967  -0.009627  -0.000221
    12  H   -0.002760  -0.028399   0.002967  -0.000024  -0.000221   0.000001
              7          8          9         10         11         12
     1  H   -0.000192   0.000000   0.003043  -0.000026  -0.031325  -0.002760
     2  C   -0.010587  -0.000192  -0.096777   0.002919   0.432471  -0.028399
     3  C   -0.096777   0.003043  -0.009627  -0.000221  -0.087256   0.002967
     4  H    0.002919  -0.000026  -0.000221   0.000001   0.002967  -0.000024
     5  C    0.432471  -0.031325  -0.087256   0.002967  -0.009627  -0.000221
     6  H   -0.028399  -0.002760   0.002967  -0.000024  -0.000221   0.000001
     7  C    5.163214   0.384262   0.432471  -0.028399  -0.096777   0.002919
     8  H    0.384262   0.389897  -0.031325  -0.002760   0.003043  -0.000026
     9  C    0.432471  -0.031325   5.240814   0.377315   0.323960  -0.034108
    10  H   -0.028399  -0.002760   0.377315   0.379141  -0.034108  -0.002537
    11  C   -0.096777   0.003043   0.323960  -0.034108   5.240814   0.377315
    12  H    0.002919  -0.000026  -0.034108  -0.002537   0.377315   0.379141
 Mulliken atomic charges:
              1
     1  H    0.288170
     2  C   -0.157125
     3  C   -0.121255
     4  H    0.305733
     5  C   -0.121255
     6  H    0.305733
     7  C   -0.157125
     8  H    0.288170
     9  C   -0.121255
    10  H    0.305733
    11  C   -0.121255
    12  H    0.305733
 Sum of Mulliken charges=   1.00000
 Atomic charges with hydrogens summed into heavy atoms:
              1
     1  H    0.000000
     2  C    0.131045
     3  C    0.184478
     4  H    0.000000
     5  C    0.184478
     6  H    0.000000
     7  C    0.131045
     8  H    0.000000
     9  C    0.184478
    10  H    0.000000
    11  C    0.184478
    12  H    0.000000
 Sum of Mulliken charges=   1.00000
          Atomic-Atomic Spin Densities.
              1          2          3          4          5          6
     1  H    0.003822   0.001919  -0.000959   0.000031   0.000088   0.000001
     2  C    0.001919  -0.133861  -0.007684   0.000362  -0.003386  -0.000022
     3  C   -0.000959  -0.007684   0.332341  -0.002035   0.034754  -0.000988
     4  H    0.000031   0.000362  -0.002035  -0.012871  -0.000988   0.000059
     5  C    0.000088  -0.003386   0.034754  -0.000988   0.332341  -0.002035
     6  H    0.000001  -0.000022  -0.000988   0.000059  -0.002035  -0.012871
     7  C   -0.000014   0.004242  -0.003386  -0.000022  -0.007684   0.000362
     8  H    0.000000  -0.000014   0.000088   0.000001  -0.000959   0.000031
     9  C    0.000088  -0.003386  -0.006491  -0.000018  -0.007596   0.000007
    10  H    0.000001  -0.000022  -0.000018   0.000000   0.000007   0.000001
    11  C   -0.000959  -0.007684  -0.007596   0.000007  -0.006491  -0.000018
    12  H    0.000031   0.000362   0.000007   0.000001  -0.000018   0.000000
              7          8          9         10         11         12
     1  H   -0.000014   0.000000   0.000088   0.000001  -0.000959   0.000031
     2  C    0.004242  -0.000014  -0.003386  -0.000022  -0.007684   0.000362
     3  C   -0.003386   0.000088  -0.006491  -0.000018  -0.007596   0.000007
     4  H   -0.000022   0.000001  -0.000018   0.000000   0.000007   0.000001
     5  C   -0.007684  -0.000959  -0.007596   0.000007  -0.006491  -0.000018
     6  H    0.000362   0.000031   0.000007   0.000001  -0.000018   0.000000
     7  C   -0.133861   0.001919  -0.007684   0.000362  -0.003386  -0.000022
     8  H    0.001919   0.003822  -0.000959   0.000031   0.000088   0.000001
     9  C   -0.007684  -0.000959   0.332341  -0.002035   0.034754  -0.000988
    10  H    0.000362   0.000031  -0.002035  -0.012871  -0.000988   0.000059
    11  C   -0.003386   0.000088   0.034754  -0.000988   0.332341  -0.002035
    12  H   -0.000022   0.000001  -0.000988   0.000059  -0.002035  -0.012871
 Mulliken atomic spin densities:
              1
     1  H    0.004048
     2  C   -0.149173
     3  C    0.338034
     4  H   -0.015471
     5  C    0.338034
     6  H   -0.015471
     7  C   -0.149173
     8  H    0.004048
     9  C    0.338034
    10  H   -0.015471
    11  C    0.338034
    12  H   -0.015471
 Sum of Mulliken spin densities=   1.00000
 Electronic spatial extent (au):  <R**2>=  1342.7982
 Charge=     1.0000 electrons
 Dipole moment (field-independent basis, Debye):
    X=     0.0000    Y=     0.0000    Z=    11.9398  Tot=    11.9398
 Quadrupole moment (field-independent basis, Debye-Ang):
   XX=   -18.5153   YY=   -36.2368   ZZ=     7.8998
   XY=     0.0000   XZ=     0.0000   YZ=     0.0000
 Traceless Quadrupole moment (field-independent basis, Debye-Ang):
   XX=    -2.8979   YY=   -20.6193   ZZ=    23.5172
   XY=     0.0000   XZ=     0.0000   YZ=     0.0000
 Octapole moment (field-independent basis, Debye-Ang**2):
  XXX=     0.0000  YYY=     0.0000  ZZZ=   -88.6452  XYY=     0.0000
  XXY=     0.0000  XXZ=   -46.0254  XZZ=     0.0000  YZZ=     0.0000
  YYZ=   -90.0773  XYZ=     0.0000
 Hexadecapole moment (field-independent basis, Debye-Ang**3):
 XXXX=  -196.1170 YYYY=   -36.0663 ZZZZ=  -832.6788 XXXY=     0.0000
 XXXZ=     0.0000 YYYX=     0.0000 YYYZ=     0.0000 ZZZX=     0.0000
 ZZZY=     0.0000 XXYY=   -53.4247 XXZZ=  -180.5958 YYZZ=  -280.2005
 XXYZ=     0.0000 YYXZ=     0.0000 ZZXY=     0.0000
 N-N= 2.036546548248D+02 E-N=-9.313947471840D+02  KE= 2.287923087867D+02
                          Isotropic Fermi Contact Couplings
        Atom                 a.u.       MegaHertz       Gauss      10(-4) cm-1
     1  H(1)               0.00111       4.96559       1.77185       1.65634
     2  C(13)             -0.02314     -26.01123      -9.28145      -8.67641
     3  C(13)              0.03636      40.87110      14.58382      13.63313
     4  H(1)              -0.00477     -21.31245      -7.60481      -7.10907
     5  C(13)              0.03636      40.87110      14.58382      13.63313
     6  H(1)              -0.00477     -21.31245      -7.60481      -7.10907
     7  C(13)             -0.02314     -26.01123      -9.28145      -8.67641
     8  H(1)               0.00111       4.96559       1.77185       1.65634
     9  C(13)              0.03636      40.87110      14.58382      13.63313
    10  H(1)              -0.00477     -21.31245      -7.60481      -7.10907
    11  C(13)              0.03636      40.87110      14.58382      13.63313
    12  H(1)              -0.00477     -21.31245      -7.60481      -7.10907
 --------------------------------------------------------
       Center         ----  Spin Dipole Couplings  ----
                      3XX-RR        3YY-RR        3ZZ-RR
 --------------------------------------------------------
     1   Atom        0.004168     -0.005497      0.001329
     2   Atom        0.049883     -0.091112      0.041229
     3   Atom       -0.163511      0.317934     -0.154423
     4   Atom        0.011342     -0.007723     -0.003619
     5   Atom       -0.163511      0.317934     -0.154423
     6   Atom        0.011342     -0.007723     -0.003619
     7   Atom        0.049883     -0.091112      0.041229
     8   Atom        0.004168     -0.005497      0.001329
     9   Atom       -0.163511      0.317934     -0.154423
    10   Atom        0.011342     -0.007723     -0.003619
    11   Atom       -0.163511      0.317934     -0.154423
    12   Atom        0.011342     -0.007723     -0.003619
 --------------------------------------------------------
                        XY            XZ            YZ
 --------------------------------------------------------
     1   Atom        0.000000      0.000000      0.000000
     2   Atom        0.000000      0.000000      0.000000
     3   Atom        0.000000     -0.004609      0.000000
     4   Atom        0.000000     -0.027058      0.000000
     5   Atom        0.000000      0.004609      0.000000
     6   Atom        0.000000      0.027058      0.000000
     7   Atom        0.000000      0.000000      0.000000
     8   Atom        0.000000      0.000000      0.000000
     9   Atom        0.000000     -0.004609      0.000000
    10   Atom        0.000000     -0.027058      0.000000
    11   Atom        0.000000      0.004609      0.000000
    12   Atom        0.000000      0.027058      0.000000
 --------------------------------------------------------


 ---------------------------------------------------------------------------------
              Anisotropic Spin Dipole Couplings in Principal Axis System
 ---------------------------------------------------------------------------------

       Atom             a.u.   MegaHertz   Gauss  10(-4) cm-1        Axes

              Baa    -0.0055    -2.933    -1.047    -0.978  0.0000  1.0000  0.0000
     1 H(1)   Bbb     0.0013     0.709     0.253     0.236  0.0000  0.0000  1.0000
              Bcc     0.0042     2.224     0.794     0.742  1.0000  0.0000  0.0000
 
              Baa    -0.0911   -12.226    -4.363    -4.078  0.0000  1.0000  0.0000
     2 C(13)  Bbb     0.0412     5.532     1.974     1.845  0.0000  0.0000  1.0000
              Bcc     0.0499     6.694     2.389     2.233  1.0000  0.0000  0.0000
 
              Baa    -0.1654   -22.200    -7.922    -7.405  0.9225  0.0000  0.3859
     3 C(13)  Bbb    -0.1525   -20.463    -7.302    -6.826 -0.3859  0.0000  0.9225
              Bcc     0.3179    42.664    15.223    14.231  0.0000  1.0000  0.0000
 
              Baa    -0.0242   -12.918    -4.610    -4.309  0.6056  0.0000  0.7958
     4 H(1)   Bbb    -0.0077    -4.121    -1.470    -1.375  0.0000  1.0000  0.0000
              Bcc     0.0319    17.039     6.080     5.684  0.7958  0.0000 -0.6056
 
              Baa    -0.1654   -22.200    -7.922    -7.405  0.9225  0.0000 -0.3859
     5 C(13)  Bbb    -0.1525   -20.463    -7.302    -6.826  0.3859  0.0000  0.9225
              Bcc     0.3179    42.664    15.223    14.231  0.0000  1.0000  0.0000
 
              Baa    -0.0242   -12.918    -4.610    -4.309 -0.6056  0.0000  0.7958
     6 H(1)   Bbb    -0.0077    -4.121    -1.470    -1.375  0.0000  1.0000  0.0000
              Bcc     0.0319    17.039     6.080     5.684  0.7958  0.0000  0.6056
 
              Baa    -0.0911   -12.226    -4.363    -4.078  0.0000  1.0000  0.0000
     7 C(13)  Bbb     0.0412     5.532     1.974     1.845  0.0000  0.0000  1.0000
              Bcc     0.0499     6.694     2.389     2.233  1.0000  0.0000  0.0000
 
              Baa    -0.0055    -2.933    -1.047    -0.978  0.0000  1.0000  0.0000
     8 H(1)   Bbb     0.0013     0.709     0.253     0.236  0.0000  0.0000  1.0000
              Bcc     0.0042     2.224     0.794     0.742  1.0000  0.0000  0.0000
 
              Baa    -0.1654   -22.200    -7.922    -7.405  0.9225  0.0000  0.3859
     9 C(13)  Bbb    -0.1525   -20.463    -7.302    -6.826 -0.3859  0.0000  0.9225
              Bcc     0.3179    42.664    15.223    14.231  0.0000  1.0000  0.0000
 
              Baa    -0.0242   -12.918    -4.610    -4.309  0.6056  0.0000  0.7958
    10 H(1)   Bbb    -0.0077    -4.121    -1.470    -1.375  0.0000  1.0000  0.0000
              Bcc     0.0319    17.039     6.080     5.684  0.7958  0.0000 -0.6056
 
              Baa    -0.1654   -22.200    -7.922    -7.405  0.9225  0.0000 -0.3859
    11 C(13)  Bbb    -0.1525   -20.463    -7.302    -6.826  0.3859  0.0000  0.9225
              Bcc     0.3179    42.664    15.223    14.231  0.0000  1.0000  0.0000
 
              Baa    -0.0242   -12.918    -4.610    -4.309 -0.6056  0.0000  0.7958
    12 H(1)   Bbb    -0.0077    -4.121    -1.470    -1.375  0.0000  1.0000  0.0000
              Bcc     0.0319    17.039     6.080     5.684  0.7958  0.0000  0.6056
 

 ---------------------------------------------------------------------------------

 -------------------------------------------------------------------
 Center     Atomic                   Forces (Hartrees/Bohr)
 Number     Number              X              Y              Z
 -------------------------------------------------------------------
    1          1           0.000000000    0.000000000    0.008571212
    2          6           0.000000000    0.000000000   -0.022979986
    3          6           0.005774936    0.000000000   -0.052249533
    4          1          -0.006313964    0.000000000    0.003157843
    5          6           0.005774936    0.000000000    0.052249533
    6          1          -0.006313964    0.000000000   -0.003157843
    7          6           0.000000000    0.000000000    0.022979986
    8          1           0.000000000    0.000000000   -0.008571212
    9          6          -0.005774937    0.000000000    0.052249533
   10          1           0.006313964    0.000000000   -0.003157843
   11          6          -0.005774937    0.000000000   -0.052249533
   12          1           0.006313964    0.000000000    0.003157843
 -------------------------------------------------------------------
 Cartesian Forces:  Max     0.052249533 RMS     0.018600999

 GradGradGradGradGradGradGradGradGradGradGradGradGradGradGradGradGradGrad
 Berny optimization.
 Internal  Forces:  Max     0.056296077 RMS     0.011362729
 Search for a local minimum.
 Step number   1 out of a maximum of  64
 All quantities printed in internal units (Hartrees-Bohrs-Radians)
 Second derivative matrix not updated -- first step.
     Eigenvalues ---    0.02206   0.02206   0.02206   0.02206   0.02206
     Eigenvalues ---    0.02206   0.02206   0.02206   0.02206   0.16000
     Eigenvalues ---    0.16000   0.16000   0.16000   0.16000   0.16000
     Eigenvalues ---    0.22000   0.22000   0.22000   0.34275   0.34275
     Eigenvalues ---    0.34275   0.34275   0.34275   0.34275   0.42646
     Eigenvalues ---    0.42646   0.47128   0.47128   0.47128   0.47128
     Eigenvalues --- 1000.000001000.000001000.000001000.000001000.00000
     Eigenvalues --- 1000.000001000.000001000.000001000.000001000.00000
     Eigenvalues --- 1000.000001000.000001000.000001000.000001000.00000
     Eigenvalues --- 1000.000001000.000001000.000001000.000001000.00000
     Eigenvalues --- 1000.000001000.000001000.000001000.00000
 RFO step:  Lambda=-1.51370915D-02.
 Linear search not attempted -- first point.
 Iteration  1 RMS(Cart)=  0.03118073 RMS(Int)=  0.00009595
 Iteration  2 RMS(Cart)=  0.00014725 RMS(Int)=  0.00000000
 Iteration  3 RMS(Cart)=  0.00000000 RMS(Int)=  0.00000000
 Variable       Old X    -DE/DX   Delta X   Delta X   Delta X     New X
                                 (Linear)    (Quad)   (Total)
    R1        2.06868  -0.00857   0.00000  -0.02395  -0.02395   2.04473
    R2        2.62880   0.00314   0.00000   0.00645   0.00645   2.63524
    R3        2.62880   0.00314   0.00000   0.00645   0.00645   2.63524
    R4        2.06868  -0.00705   0.00000  -0.01969  -0.01969   2.04899
    R5        2.62880   0.05630   0.00000   0.11574   0.11574   2.74453
    R6        2.06868  -0.00705   0.00000  -0.01969  -0.01969   2.04899
    R7        2.62880   0.00314   0.00000   0.00645   0.00645   2.63524
    R8        2.06868  -0.00857   0.00000  -0.02395  -0.02395   2.04473
    R9        2.62880   0.00314   0.00000   0.00645   0.00645   2.63524
   R10        2.06868  -0.00705   0.00000  -0.01969  -0.01969   2.04899
   R11        2.62880   0.05630   0.00000   0.11574   0.11574   2.74453
   R12        2.06868  -0.00705   0.00000  -0.01969  -0.01969   2.04899
    A1        2.09440   0.00371   0.00000   0.01576   0.01576   2.11015
    A2        2.09440   0.00371   0.00000   0.01576   0.01576   2.11015
    A3        2.09440  -0.00741   0.00000  -0.03152  -0.03152   2.06288
    A4        2.09440  -0.00229   0.00000  -0.01037  -0.01037   2.08402
    A5        2.09440   0.00371   0.00000   0.01576   0.01576   2.11015
    A6        2.09440  -0.00142   0.00000  -0.00539  -0.00539   2.08901
    A7        2.09440  -0.00142   0.00000  -0.00539  -0.00539   2.08901
    A8        2.09440   0.00371   0.00000   0.01576   0.01576   2.11015
    A9        2.09440  -0.00229   0.00000  -0.01037  -0.01037   2.08402
   A10        2.09440   0.00371   0.00000   0.01576   0.01576   2.11015
   A11        2.09440  -0.00741   0.00000  -0.03152  -0.03152   2.06288
   A12        2.09440   0.00371   0.00000   0.01576   0.01576   2.11015
   A13        2.09440  -0.00229   0.00000  -0.01037  -0.01037   2.08402
   A14        2.09440   0.00371   0.00000   0.01576   0.01576   2.11015
   A15        2.09440  -0.00142   0.00000  -0.00539  -0.00539   2.08901
   A16        2.09440   0.00371   0.00000   0.01576   0.01576   2.11015
   A17        2.09440  -0.00229   0.00000  -0.01037  -0.01037   2.08402
   A18        2.09440  -0.00142   0.00000  -0.00539  -0.00539   2.08901
    D1        0.00000   0.00000   0.00000   0.00000   0.00000   0.00000
    D2        3.14159   0.00000   0.00000   0.00000   0.00000   3.14159
    D3        3.14159   0.00000   0.00000   0.00000   0.00000   3.14159
    D4        0.00000   0.00000   0.00000   0.00000   0.00000   0.00000
    D5        3.14159   0.00000   0.00000   0.00000   0.00000   3.14159
    D6        0.00000   0.00000   0.00000   0.00000   0.00000   0.00000
    D7        0.00000   0.00000   0.00000   0.00000   0.00000   0.00000
    D8        3.14159   0.00000   0.00000   0.00000   0.00000   3.14159
    D9        3.14159   0.00000   0.00000   0.00000   0.00000   3.14159
   D10        0.00000   0.00000   0.00000   0.00000   0.00000   0.00000
   D11        0.00000   0.00000   0.00000   0.00000   0.00000   0.00000
   D12        3.14159   0.00000   0.00000   0.00000   0.00000   3.14159
   D13        3.14159   0.00000   0.00000   0.00000   0.00000   3.14159
   D14        0.00000   0.00000   0.00000   0.00000   0.00000   0.00000
   D15        0.00000   0.00000   0.00000   0.00000   0.00000   0.00000
   D16        3.14159   0.00000   0.00000   0.00000   0.00000   3.14159
   D17        3.14159   0.00000   0.00000   0.00000   0.00000   3.14159
   D18        0.00000   0.00000   0.00000   0.00000   0.00000   0.00000
   D19        0.00000   0.00000   0.00000   0.00000   0.00000   0.00000
   D20        3.14159   0.00000   0.00000   0.00000   0.00000   3.14159
   D21        0.00000   0.00000   0.00000   0.00000   0.00000   0.00000
   D22        3.14159   0.00000   0.00000   0.00000   0.00000   3.14159
   D23        3.14159   0.00000   0.00000   0.00000   0.00000   3.14159
   D24        0.00000   0.00000   0.00000   0.00000   0.00000   0.00000
         Item               Value     Threshold  Converged?
 Maximum Force            0.056296     0.000450     NO 
 RMS     Force            0.011363     0.000300     NO 
 Maximum Displacement     0.096888     0.001800     NO 
 RMS     Displacement     0.031211     0.001200     NO 
 Predicted change in Energy=-7.827187D-03
 GradGradGradGradGradGradGradGradGradGradGradGradGradGradGradGradGradGrad

                          Input orientation:                          
 ---------------------------------------------------------------------
 Center     Atomic     Atomic              Coordinates (Angstroms)
 Number     Number      Type              X           Y           Z
 ---------------------------------------------------------------------
    1          1             0        0.000000    0.000000   -0.038597
    2          6             0        0.000000    0.000000    1.043429
    3          6             0        1.196545    0.000000    1.759627
    4          1             0        2.138466    0.000000    1.222552
    5          6             0        1.196545    0.000000    3.211973
    6          1             0        2.138466    0.000000    3.749048
    7          6             0        0.000000    0.000000    3.928171
    8          1             0        0.000000    0.000000    5.010197
    9          6             0       -1.196545    0.000000    3.211973
   10          1             0       -2.138466    0.000000    3.749048
   11          6             0       -1.196545    0.000000    1.759627
   12          1             0       -2.138466    0.000000    1.222552
 ---------------------------------------------------------------------
                    Distance matrix (angstroms):
                    1          2          3          4          5
     1  H    0.000000
     2  C    1.082027   0.000000
     3  C    2.159938   1.394511   0.000000
     4  H    2.482646   2.145954   1.084280   0.000000
     5  C    3.463802   2.476752   1.452345   2.201138   0.000000
     6  H    4.349631   3.448682   2.201138   2.526496   1.084280
     7  C    3.966768   2.884742   2.476752   3.448682   1.394511
     8  H    5.048795   3.966768   3.463802   4.349631   2.159938
     9  C    3.463802   2.476752   2.799320   3.883310   2.393091
    10  H    4.349631   3.448682   3.883310   4.967426   3.377980
    11  C    2.159938   1.394511   2.393091   3.377980   2.799320
    12  H    2.482646   2.145954   3.377980   4.276931   3.883310
                    6          7          8          9         10
     6  H    0.000000
     7  C    2.145954   0.000000
     8  H    2.482646   1.082027   0.000000
     9  C    3.377980   1.394511   2.159938   0.000000
    10  H    4.276931   2.145954   2.482646   1.084280   0.000000
    11  C    3.883310   2.476752   3.463802   1.452345   2.201138
    12  H    4.967426   3.448682   4.349631   2.201138   2.526496
                   11         12
    11  C    0.000000
    12  H    1.084280   0.000000
 Symmetry turned off by external request.
 Stoichiometry    C6H6(1+,2)
 Framework group  D2H[C2"(HC.CH),SG(C4H4)]
 Deg. of freedom     6
 Full point group                 D2H
 Rotational constants (GHZ):      5.7984312      5.3467880      2.7817293
 Standard basis: 3-21G (6D, 7F)
 Integral buffers will be    262144 words long.
 Raffenetti 2 integral format.
 Two-electron integral symmetry is turned off.
    66 basis functions,   108 primitive gaussians,    66 cartesian basis functions
    21 alpha electrons       20 beta electrons
       nuclear repulsion energy       201.2337850769 Hartrees.
 NAtoms=   12 NActive=   12 NUniq=   12 SFac= 7.50D-01 NAtFMM=   80 NAOKFM=F Big=F
 One-electron integrals computed using PRISM.
 NBasis=    66 RedAO= T  NBF=    66
 NBsUse=    66 1.00D-06 NBFU=    66
 Initial guess read from the read-write file:
 <S**2> of initial guess= 0.7639
 Harris functional with IExCor=  402 diagonalized for initial guess.
 ExpMin= 1.83D-01 ExpMax= 1.72D+02 ExpMxC= 1.72D+02 IAcc=1 IRadAn=         1 AccDes= 1.00D-06
 HarFok:  IExCor= 402 AccDes= 1.00D-06 IRadAn=         1 IDoV=1
 ScaDFX=  1.000000  1.000000  1.000000  1.000000
 Requested convergence on RMS density matrix=1.00D-08 within 128 cycles.
 Requested convergence on MAX density matrix=1.00D-06.
 Requested convergence on             energy=1.00D-06.
 No special actions if energy rises.
 Integral accuracy reduced to 1.0D-05 until final iterations.
 Initial convergence to 1.0D-05 achieved.  Increase integral accuracy.
 SCF Done:  E(UB+HF-LYP) =  -230.642972635     A.U. after   12 cycles
             Convg  =    0.4282D-08             -V/T =  2.0091
             S**2   =   0.7643
 Annihilation of the first spin contaminant:
 S**2 before annihilation     0.7643,   after     0.7501
 -------------------------------------------------------------------
 Center     Atomic                   Forces (Hartrees/Bohr)
 Number     Number              X              Y              Z
 -------------------------------------------------------------------
    1          1           0.000000004    0.000000000    0.000400268
    2          6          -0.000000005    0.000000000    0.005905089
    3          6          -0.000635591    0.000000000   -0.007512576
    4          1           0.001141804    0.000000000    0.002298343
    5          6          -0.000635591    0.000000000    0.007512576
    6          1           0.001141804    0.000000000   -0.002298343
    7          6          -0.000000005    0.000000000   -0.005905089
    8          1           0.000000004    0.000000000   -0.000400268
    9          6           0.000635574    0.000000000    0.007512574
   10          1          -0.001141786    0.000000000   -0.002298349
   11          6           0.000635574    0.000000000   -0.007512574
   12          1          -0.001141786    0.000000000    0.002298349
 -------------------------------------------------------------------
 Cartesian Forces:  Max     0.007512576 RMS     0.002998963

 GradGradGradGradGradGradGradGradGradGradGradGradGradGradGradGradGradGrad
 Berny optimization.
 Internal  Forces:  Max     0.003201455 RMS     0.001316389
 Search for a local minimum.
 Step number   2 out of a maximum of  64
 All quantities printed in internal units (Hartrees-Bohrs-Radians)
 Update second derivatives using D2CorX and points  1  2
 Trust test= 9.27D-01 RLast= 1.85D-01 DXMaxT set to 4.24D-01
     Eigenvalues ---    0.02206   0.02206   0.02206   0.02206   0.02206
     Eigenvalues ---    0.02206   0.02206   0.02206   0.02206   0.15884
     Eigenvalues ---    0.16000   0.16000   0.16000   0.16000   0.16000
     Eigenvalues ---    0.22000   0.22000   0.23000   0.34263   0.34275
     Eigenvalues ---    0.34275   0.34275   0.34275   0.34355   0.42528
     Eigenvalues ---    0.42987   0.45493   0.47128   0.47128   0.48294
     Eigenvalues --- 1000.000001000.000001000.000001000.000001000.00000
     Eigenvalues --- 1000.000001000.000001000.000001000.000001000.00000
     Eigenvalues --- 1000.000001000.000001000.000001000.000001000.00000
     Eigenvalues --- 1000.000001000.000001000.000001000.000001000.00000
     Eigenvalues --- 1000.000001000.000001000.000001000.00000
 RFO step:  Lambda=-4.89079006D-04.
 Quartic linear search produced a step of  0.00758.
 Iteration  1 RMS(Cart)=  0.00808100 RMS(Int)=  0.00005563
 Iteration  2 RMS(Cart)=  0.00006290 RMS(Int)=  0.00000000
 Iteration  3 RMS(Cart)=  0.00000000 RMS(Int)=  0.00000000
 Variable       Old X    -DE/DX   Delta X   Delta X   Delta X     New X
                                 (Linear)    (Quad)   (Total)
    R1        2.04473  -0.00040  -0.00018  -0.00182  -0.00200   2.04274
    R2        2.63524  -0.00118   0.00005  -0.00236  -0.00231   2.63293
    R3        2.63524  -0.00118   0.00005  -0.00236  -0.00231   2.63293
    R4        2.04899  -0.00015  -0.00015  -0.00096  -0.00111   2.04789
    R5        2.74453   0.00206   0.00088   0.00747   0.00834   2.75288
    R6        2.04899  -0.00015  -0.00015  -0.00096  -0.00111   2.04789
    R7        2.63524  -0.00118   0.00005  -0.00236  -0.00231   2.63293
    R8        2.04473  -0.00040  -0.00018  -0.00182  -0.00200   2.04274
    R9        2.63524  -0.00118   0.00005  -0.00236  -0.00231   2.63293
   R10        2.04899  -0.00015  -0.00015  -0.00096  -0.00111   2.04789
   R11        2.74453   0.00206   0.00088   0.00747   0.00834   2.75288
   R12        2.04899  -0.00015  -0.00015  -0.00096  -0.00111   2.04789
    A1        2.11015  -0.00115   0.00012  -0.00484  -0.00472   2.10543
    A2        2.11015  -0.00115   0.00012  -0.00484  -0.00472   2.10543
    A3        2.06288   0.00231  -0.00024   0.00968   0.00944   2.07232
    A4        2.08402   0.00320  -0.00008   0.01883   0.01875   2.10277
    A5        2.11015  -0.00115   0.00012  -0.00484  -0.00472   2.10543
    A6        2.08901  -0.00205  -0.00004  -0.01399  -0.01403   2.07498
    A7        2.08901  -0.00205  -0.00004  -0.01399  -0.01403   2.07498
    A8        2.11015  -0.00115   0.00012  -0.00484  -0.00472   2.10543
    A9        2.08402   0.00320  -0.00008   0.01883   0.01875   2.10277
   A10        2.11015  -0.00115   0.00012  -0.00484  -0.00472   2.10543
   A11        2.06288   0.00231  -0.00024   0.00968   0.00944   2.07232
   A12        2.11015  -0.00115   0.00012  -0.00484  -0.00472   2.10543
   A13        2.08402   0.00320  -0.00008   0.01883   0.01875   2.10277
   A14        2.11015  -0.00115   0.00012  -0.00484  -0.00472   2.10543
   A15        2.08901  -0.00205  -0.00004  -0.01399  -0.01403   2.07498
   A16        2.11015  -0.00115   0.00012  -0.00484  -0.00472   2.10543
   A17        2.08402   0.00320  -0.00008   0.01883   0.01875   2.10277
   A18        2.08901  -0.00205  -0.00004  -0.01399  -0.01403   2.07498
    D1        0.00000   0.00000   0.00000   0.00000   0.00000   0.00000
    D2        3.14159   0.00000   0.00000   0.00000   0.00000   3.14159
    D3        3.14159   0.00000   0.00000   0.00000   0.00000   3.14159
    D4        0.00000   0.00000   0.00000   0.00000   0.00000   0.00000
    D5        3.14159   0.00000   0.00000   0.00000   0.00000   3.14159
    D6        0.00000   0.00000   0.00000   0.00000   0.00000   0.00000
    D7        0.00000   0.00000   0.00000   0.00000   0.00000   0.00000
    D8        3.14159   0.00000   0.00000   0.00000   0.00000   3.14159
    D9        3.14159   0.00000   0.00000   0.00000   0.00000   3.14159
   D10        0.00000   0.00000   0.00000   0.00000   0.00000   0.00000
   D11        0.00000   0.00000   0.00000   0.00000   0.00000   0.00000
   D12        3.14159   0.00000   0.00000   0.00000   0.00000   3.14159
   D13        3.14159   0.00000   0.00000   0.00000   0.00000   3.14159
   D14        0.00000   0.00000   0.00000   0.00000   0.00000   0.00000
   D15        0.00000   0.00000   0.00000   0.00000   0.00000   0.00000
   D16        3.14159   0.00000   0.00000   0.00000   0.00000   3.14159
   D17        3.14159   0.00000   0.00000   0.00000   0.00000   3.14159
   D18        0.00000   0.00000   0.00000   0.00000   0.00000   0.00000
   D19        0.00000   0.00000   0.00000   0.00000   0.00000   0.00000
   D20        3.14159   0.00000   0.00000   0.00000   0.00000   3.14159
   D21        0.00000   0.00000   0.00000   0.00000   0.00000   0.00000
   D22        3.14159   0.00000   0.00000   0.00000   0.00000   3.14159
   D23        3.14159   0.00000   0.00000   0.00000   0.00000   3.14159
   D24        0.00000   0.00000   0.00000   0.00000   0.00000   0.00000
         Item               Value     Threshold  Converged?
 Maximum Force            0.003201     0.000450     NO 
 RMS     Force            0.001316     0.000300     NO 
 Maximum Displacement     0.021437     0.001800     NO 
 RMS     Displacement     0.008064     0.001200     NO 
 Predicted change in Energy=-2.454559D-04
 GradGradGradGradGradGradGradGradGradGradGradGradGradGradGradGradGradGrad

                          Input orientation:                          
 ---------------------------------------------------------------------
 Center     Atomic     Atomic              Coordinates (Angstroms)
 Number     Number      Type              X           Y           Z
 ---------------------------------------------------------------------
    1          1             0        0.000000    0.000000   -0.033470
    2          6             0        0.000000    0.000000    1.047500
    3          6             0        1.198860    0.000000    1.757420
    4          1             0        2.147711    0.000000    1.233896
    5          6             0        1.198860    0.000000    3.214180
    6          1             0        2.147711    0.000000    3.737704
    7          6             0        0.000000    0.000000    3.924100
    8          1             0        0.000000    0.000000    5.005070
    9          6             0       -1.198860    0.000000    3.214180
   10          1             0       -2.147711    0.000000    3.737704
   11          6             0       -1.198860    0.000000    1.757420
   12          1             0       -2.147711    0.000000    1.233896
 ---------------------------------------------------------------------
                    Distance matrix (angstroms):
                    1          2          3          4          5
     1  H    0.000000
     2  C    1.080970   0.000000
     3  C    2.155122   1.393288   0.000000
     4  H    2.493768   2.155784   1.083695   0.000000
     5  C    3.461863   2.476240   1.456760   2.195869   0.000000
     6  H    4.339863   3.442362   2.195869   2.503808   1.083695
     7  C    3.957569   2.876599   2.476240   3.442362   1.393288
     8  H    5.038539   3.957569   3.461863   4.339863   2.155122
     9  C    3.461863   2.476240   2.805568   3.888581   2.397720
    10  H    4.339863   3.442362   3.888581   4.971891   3.387272
    11  C    2.155122   1.393288   2.397720   3.387273   2.805568
    12  H    2.493768   2.155784   3.387272   4.295422   3.888581
                    6          7          8          9         10
     6  H    0.000000
     7  C    2.155784   0.000000
     8  H    2.493768   1.080970   0.000000
     9  C    3.387273   1.393288   2.155122   0.000000
    10  H    4.295422   2.155784   2.493768   1.083695   0.000000
    11  C    3.888581   2.476240   3.461863   1.456760   2.195869
    12  H    4.971891   3.442362   4.339863   2.195869   2.503808
                   11         12
    11  C    0.000000
    12  H    1.083695   0.000000
 Symmetry turned off by external request.
 Stoichiometry    C6H6(1+,2)
 Framework group  C2V[SGV(C6H6)]
 Deg. of freedom    11
 Full point group                 C2V
 Rotational constants (GHZ):      5.7702354      5.3634993      2.7797190
 Standard basis: 3-21G (6D, 7F)
 Integral buffers will be    262144 words long.
 Raffenetti 2 integral format.
 Two-electron integral symmetry is turned off.
    66 basis functions,   108 primitive gaussians,    66 cartesian basis functions
    21 alpha electrons       20 beta electrons
       nuclear repulsion energy       201.1761389428 Hartrees.
 NAtoms=   12 NActive=   12 NUniq=   12 SFac= 7.50D-01 NAtFMM=   80 NAOKFM=F Big=F
 One-electron integrals computed using PRISM.
 NBasis=    66 RedAO= T  NBF=    66
 NBsUse=    66 1.00D-06 NBFU=    66
 Initial guess read from the read-write file:
 <S**2> of initial guess= 0.7643
 Harris functional with IExCor=  402 diagonalized for initial guess.
 ExpMin= 1.83D-01 ExpMax= 1.72D+02 ExpMxC= 1.72D+02 IAcc=1 IRadAn=         1 AccDes= 1.00D-06
 HarFok:  IExCor= 402 AccDes= 1.00D-06 IRadAn=         1 IDoV=1
 ScaDFX=  1.000000  1.000000  1.000000  1.000000
 Requested convergence on RMS density matrix=1.00D-08 within 128 cycles.
 Requested convergence on MAX density matrix=1.00D-06.
 Requested convergence on             energy=1.00D-06.
 No special actions if energy rises.
 Integral accuracy reduced to 1.0D-05 until final iterations.
 Initial convergence to 1.0D-05 achieved.  Increase integral accuracy.
 SCF Done:  E(UB+HF-LYP) =  -230.643255380     A.U. after   10 cycles
             Convg  =    0.8031D-08             -V/T =  2.0091
             S**2   =   0.7643
 Annihilation of the first spin contaminant:
 S**2 before annihilation     0.7643,   after     0.7501
 -------------------------------------------------------------------
 Center     Atomic                   Forces (Hartrees/Bohr)
 Number     Number              X              Y              Z
 -------------------------------------------------------------------
    1          1          -0.000000003    0.000000000   -0.000617787
    2          6           0.000000003    0.000000000    0.002071746
    3          6          -0.001172436    0.000000000   -0.001831382
    4          1           0.000290580    0.000000000    0.000306934
    5          6          -0.001172436    0.000000000    0.001831382
    6          1           0.000290580    0.000000000   -0.000306934
    7          6           0.000000003    0.000000000   -0.002071746
    8          1          -0.000000003    0.000000000    0.000617787
    9          6           0.001172453    0.000000000    0.001831380
   10          1          -0.000290596    0.000000000   -0.000306927
   11          6           0.001172453    0.000000000   -0.001831380
   12          1          -0.000290596    0.000000000    0.000306927
 -------------------------------------------------------------------
 Cartesian Forces:  Max     0.002071746 RMS     0.000897164

 GradGradGradGradGradGradGradGradGradGradGradGradGradGradGradGradGradGrad
 Berny optimization.
 Internal  Forces:  Max     0.001129214 RMS     0.000398760
 Search for a local minimum.
 Step number   3 out of a maximum of  64
 All quantities printed in internal units (Hartrees-Bohrs-Radians)
 Update second derivatives using D2CorX and points  1  2  3
 Trust test= 1.15D+00 RLast= 5.22D-02 DXMaxT set to 4.24D-01
     Eigenvalues ---    0.02206   0.02206   0.02206   0.02206   0.02206
     Eigenvalues ---    0.02206   0.02206   0.02206   0.02206   0.13281
     Eigenvalues ---    0.16000   0.16000   0.16000   0.16000   0.16000
     Eigenvalues ---    0.22000   0.22000   0.23329   0.34275   0.34275
     Eigenvalues ---    0.34275   0.34275   0.34325   0.34899   0.42563
     Eigenvalues ---    0.42962   0.43677   0.47128   0.47128   0.49187
     Eigenvalues --- 1000.000001000.000001000.000001000.000001000.00000
     Eigenvalues --- 1000.000001000.000001000.000001000.000001000.00000
     Eigenvalues --- 1000.000001000.000001000.000001000.000001000.00000
     Eigenvalues --- 1000.000001000.000001000.000001000.000001000.00000
     Eigenvalues --- 1000.000001000.000001000.000001000.00000
 RFO step:  Lambda=-1.95622982D-05.
 Quartic linear search produced a step of  0.18676.
 Iteration  1 RMS(Cart)=  0.00168449 RMS(Int)=  0.00000405
 Iteration  2 RMS(Cart)=  0.00000413 RMS(Int)=  0.00000000
 Iteration  3 RMS(Cart)=  0.00000000 RMS(Int)=  0.00000000
 Variable       Old X    -DE/DX   Delta X   Delta X   Delta X     New X
                                 (Linear)    (Quad)   (Total)
    R1        2.04274   0.00062  -0.00037   0.00227   0.00190   2.04463
    R2        2.63293  -0.00113  -0.00043  -0.00250  -0.00293   2.63001
    R3        2.63293  -0.00113  -0.00043  -0.00250  -0.00293   2.63001
    R4        2.04789   0.00011  -0.00021   0.00039   0.00018   2.04807
    R5        2.75288   0.00080   0.00156   0.00164   0.00320   2.75608
    R6        2.04789   0.00011  -0.00021   0.00039   0.00018   2.04807
    R7        2.63293  -0.00113  -0.00043  -0.00250  -0.00293   2.63001
    R8        2.04274   0.00062  -0.00037   0.00227   0.00190   2.04463
    R9        2.63293  -0.00113  -0.00043  -0.00250  -0.00293   2.63001
   R10        2.04789   0.00011  -0.00021   0.00039   0.00018   2.04807
   R11        2.75288   0.00080   0.00156   0.00164   0.00320   2.75608
   R12        2.04789   0.00011  -0.00021   0.00039   0.00018   2.04807
    A1        2.10543  -0.00001  -0.00088   0.00070  -0.00018   2.10526
    A2        2.10543  -0.00001  -0.00088   0.00070  -0.00018   2.10526
    A3        2.07232   0.00002   0.00176  -0.00141   0.00035   2.07267
    A4        2.10277   0.00042   0.00350   0.00049   0.00399   2.10676
    A5        2.10543  -0.00001  -0.00088   0.00070  -0.00018   2.10526
    A6        2.07498  -0.00041  -0.00262  -0.00119  -0.00381   2.07117
    A7        2.07498  -0.00041  -0.00262  -0.00119  -0.00381   2.07117
    A8        2.10543  -0.00001  -0.00088   0.00070  -0.00018   2.10526
    A9        2.10277   0.00042   0.00350   0.00049   0.00399   2.10676
   A10        2.10543  -0.00001  -0.00088   0.00070  -0.00018   2.10526
   A11        2.07232   0.00002   0.00176  -0.00141   0.00035   2.07267
   A12        2.10543  -0.00001  -0.00088   0.00070  -0.00018   2.10526
   A13        2.10277   0.00042   0.00350   0.00049   0.00399   2.10676
   A14        2.10543  -0.00001  -0.00088   0.00070  -0.00018   2.10526
   A15        2.07498  -0.00041  -0.00262  -0.00119  -0.00381   2.07117
   A16        2.10543  -0.00001  -0.00088   0.00070  -0.00018   2.10526
   A17        2.10277   0.00042   0.00350   0.00049   0.00399   2.10676
   A18        2.07498  -0.00041  -0.00262  -0.00119  -0.00381   2.07117
    D1        0.00000   0.00000   0.00000   0.00000   0.00000   0.00000
    D2        3.14159   0.00000   0.00000   0.00000   0.00000   3.14159
    D3        3.14159   0.00000   0.00000   0.00000   0.00000   3.14159
    D4        0.00000   0.00000   0.00000   0.00000   0.00000   0.00000
    D5        3.14159   0.00000   0.00000   0.00000   0.00000   3.14159
    D6        0.00000   0.00000   0.00000   0.00000   0.00000   0.00000
    D7        0.00000   0.00000   0.00000   0.00000   0.00000   0.00000
    D8        3.14159   0.00000   0.00000   0.00000   0.00000   3.14159
    D9        3.14159   0.00000   0.00000   0.00000   0.00000   3.14159
   D10        0.00000   0.00000   0.00000   0.00000   0.00000   0.00000
   D11        0.00000   0.00000   0.00000   0.00000   0.00000   0.00000
   D12        3.14159   0.00000   0.00000   0.00000   0.00000   3.14159
   D13        3.14159   0.00000   0.00000   0.00000   0.00000   3.14159
   D14        0.00000   0.00000   0.00000   0.00000   0.00000   0.00000
   D15        0.00000   0.00000   0.00000   0.00000   0.00000   0.00000
   D16        3.14159   0.00000   0.00000   0.00000   0.00000   3.14159
   D17        3.14159   0.00000   0.00000   0.00000   0.00000   3.14159
   D18        0.00000   0.00000   0.00000   0.00000   0.00000   0.00000
   D19        0.00000   0.00000   0.00000   0.00000   0.00000   0.00000
   D20        3.14159   0.00000   0.00000   0.00000   0.00000   3.14159
   D21        0.00000   0.00000   0.00000   0.00000   0.00000   0.00000
   D22        3.14159   0.00000   0.00000   0.00000   0.00000   3.14159
   D23        3.14159   0.00000   0.00000   0.00000   0.00000   3.14159
   D24        0.00000   0.00000   0.00000   0.00000   0.00000   0.00000
         Item               Value     Threshold  Converged?
 Maximum Force            0.001129     0.000450     NO 
 RMS     Force            0.000399     0.000300     NO 
 Maximum Displacement     0.005155     0.001800     NO 
 RMS     Displacement     0.001685     0.001200     NO 
 Predicted change in Energy=-1.686061D-05
 GradGradGradGradGradGradGradGradGradGradGradGradGradGradGradGradGradGrad

                          Input orientation:                          
 ---------------------------------------------------------------------
 Center     Atomic     Atomic              Coordinates (Angstroms)
 Number     Number      Type              X           Y           Z
 ---------------------------------------------------------------------
    1          1             0        0.000000    0.000000   -0.034318
    2          6             0        0.000000    0.000000    1.047655
    3          6             0        1.197653    0.000000    1.756574
    4          1             0        2.148578    0.000000    1.236624
    5          6             0        1.197653    0.000000    3.215026
    6          1             0        2.148578    0.000000    3.734976
    7          6             0        0.000000    0.000000    3.923945
    8          1             0        0.000000    0.000000    5.005918
    9          6             0       -1.197653    0.000000    3.215026
   10          1             0       -2.148578    0.000000    3.734976
   11          6             0       -1.197653    0.000000    1.756574
   12          1             0       -2.148578    0.000000    1.236624
 ---------------------------------------------------------------------
                    Distance matrix (angstroms):
                    1          2          3          4          5
     1  H    0.000000
     2  C    1.081973   0.000000
     3  C    2.154452   1.391739   0.000000
     4  H    2.496333   2.156872   1.083793   0.000000
     5  C    3.463035   2.476261   1.458452   2.195071   0.000000
     6  H    4.338659   3.440651   2.195071   2.498352   1.083793
     7  C    3.958263   2.876290   2.476261   3.440651   1.391739
     8  H    5.040236   3.958263   3.463035   4.338659   2.154452
     9  C    3.463035   2.476261   2.804384   3.887330   2.395305
    10  H    4.338659   3.440651   3.887330   4.970645   3.386386
    11  C    2.154452   1.391739   2.395305   3.386386   2.804384
    12  H    2.496333   2.156872   3.386386   4.297156   3.887330
                    6          7          8          9         10
     6  H    0.000000
     7  C    2.156872   0.000000
     8  H    2.496333   1.081973   0.000000
     9  C    3.386386   1.391739   2.154452   0.000000
    10  H    4.297156   2.156872   2.496333   1.083793   0.000000
    11  C    3.887330   2.476261   3.463035   1.458452   2.195071
    12  H    4.970645   3.440651   4.338659   2.195071   2.498352
                   11         12
    11  C    0.000000
    12  H    1.083793   0.000000
 Symmetry turned off by external request.
 Stoichiometry    C6H6(1+,2)
 Framework group  D2H[C2"(HC.CH),SG(C4H4)]
 Deg. of freedom     6
 Full point group                 D2H
 Rotational constants (GHZ):      5.7784086      5.3618127      2.7811606
 Standard basis: 3-21G (6D, 7F)
 Integral buffers will be    262144 words long.
 Raffenetti 2 integral format.
 Two-electron integral symmetry is turned off.
    66 basis functions,   108 primitive gaussians,    66 cartesian basis functions
    21 alpha electrons       20 beta electrons
       nuclear repulsion energy       201.2257770552 Hartrees.
 NAtoms=   12 NActive=   12 NUniq=   12 SFac= 7.50D-01 NAtFMM=   80 NAOKFM=F Big=F
 One-electron integrals computed using PRISM.
 NBasis=    66 RedAO= T  NBF=    66
 NBsUse=    66 1.00D-06 NBFU=    66
 Initial guess read from the read-write file:
 <S**2> of initial guess= 0.7643
 Requested convergence on RMS density matrix=1.00D-08 within 128 cycles.
 Requested convergence on MAX density matrix=1.00D-06.
 Requested convergence on             energy=1.00D-06.
 No special actions if energy rises.
 SCF Done:  E(UB+HF-LYP) =  -230.643271827     A.U. after    8 cycles
             Convg  =    0.7807D-08             -V/T =  2.0091
             S**2   =   0.7642
 Annihilation of the first spin contaminant:
 S**2 before annihilation     0.7642,   after     0.7501
 -------------------------------------------------------------------
 Center     Atomic                   Forces (Hartrees/Bohr)
 Number     Number              X              Y              Z
 -------------------------------------------------------------------
    1          1           0.000000008    0.000000000    0.000030702
    2          6          -0.000000009    0.000000001   -0.000160821
    3          6           0.000070135   -0.000000001    0.000020162
    4          1           0.000021359    0.000000000   -0.000006723
    5          6           0.000070135    0.000000001   -0.000020162
    6          1           0.000021359    0.000000000    0.000006723
    7          6          -0.000000009   -0.000000001    0.000160821
    8          1           0.000000008    0.000000000   -0.000030702
    9          6          -0.000070171    0.000000001   -0.000020163
   10          1          -0.000021320    0.000000000    0.000006710
   11          6          -0.000070171   -0.000000001    0.000020163
   12          1          -0.000021320    0.000000000   -0.000006710
 -------------------------------------------------------------------
 Cartesian Forces:  Max     0.000160821 RMS     0.000046226

 GradGradGradGradGradGradGradGradGradGradGradGradGradGradGradGradGradGrad
 Berny optimization.
 Internal  Forces:  Max     0.000111875 RMS     0.000033365
 Search for a local minimum.
 Step number   4 out of a maximum of  64
 All quantities printed in internal units (Hartrees-Bohrs-Radians)
 Update second derivatives using D2CorX and points  1  2  3  4
 Trust test= 9.75D-01 RLast= 1.36D-02 DXMaxT set to 4.24D-01
     Eigenvalues ---    0.02206   0.02206   0.02206   0.02206   0.02206
     Eigenvalues ---    0.02206   0.02206   0.02206   0.02206   0.12918
     Eigenvalues ---    0.16000   0.16000   0.16000   0.16000   0.16000
     Eigenvalues ---    0.22000   0.22000   0.23490   0.34275   0.34275
     Eigenvalues ---    0.34275   0.34275   0.34308   0.34780   0.42556
     Eigenvalues ---    0.42964   0.44117   0.47128   0.47128   0.49867
     Eigenvalues --- 1000.000001000.000001000.000001000.000001000.00000
     Eigenvalues --- 1000.000001000.000001000.000001000.000001000.00000
     Eigenvalues --- 1000.000001000.000001000.000001000.000001000.00000
     Eigenvalues --- 1000.000001000.000001000.000001000.000001000.00000
     Eigenvalues --- 1000.000001000.000001000.000001000.00000
 RFO step:  Lambda=-9.93643369D-08.
 Quartic linear search produced a step of -0.02760.
 Iteration  1 RMS(Cart)=  0.00009774 RMS(Int)=  0.00000000
 Iteration  2 RMS(Cart)=  0.00000000 RMS(Int)=  0.00000000
 Variable       Old X    -DE/DX   Delta X   Delta X   Delta X     New X
                                 (Linear)    (Quad)   (Total)
    R1        2.04463  -0.00003  -0.00005  -0.00003  -0.00008   2.04455
    R2        2.63001   0.00011   0.00008   0.00014   0.00022   2.63023
    R3        2.63001   0.00011   0.00008   0.00014   0.00022   2.63023
    R4        2.04807   0.00002  -0.00001   0.00007   0.00007   2.04814
    R5        2.75608   0.00005  -0.00009   0.00019   0.00010   2.75618
    R6        2.04807   0.00002  -0.00001   0.00007   0.00007   2.04814
    R7        2.63001   0.00011   0.00008   0.00014   0.00022   2.63023
    R8        2.04463  -0.00003  -0.00005  -0.00003  -0.00008   2.04455
    R9        2.63001   0.00011   0.00008   0.00014   0.00022   2.63023
   R10        2.04807   0.00002  -0.00001   0.00007   0.00007   2.04814
   R11        2.75608   0.00005  -0.00009   0.00019   0.00010   2.75618
   R12        2.04807   0.00002  -0.00001   0.00007   0.00007   2.04814
    A1        2.10526   0.00001   0.00000   0.00002   0.00003   2.10529
    A2        2.10526   0.00001   0.00000   0.00002   0.00003   2.10529
    A3        2.07267  -0.00001  -0.00001  -0.00005  -0.00006   2.07261
    A4        2.10676   0.00000  -0.00011   0.00012   0.00001   2.10678
    A5        2.10526   0.00001   0.00000   0.00002   0.00003   2.10529
    A6        2.07117  -0.00001   0.00011  -0.00015  -0.00004   2.07112
    A7        2.07117  -0.00001   0.00011  -0.00015  -0.00004   2.07112
    A8        2.10526   0.00001   0.00000   0.00002   0.00003   2.10529
    A9        2.10676   0.00000  -0.00011   0.00012   0.00001   2.10678
   A10        2.10526   0.00001   0.00000   0.00002   0.00003   2.10529
   A11        2.07267  -0.00001  -0.00001  -0.00005  -0.00006   2.07261
   A12        2.10526   0.00001   0.00000   0.00002   0.00003   2.10529
   A13        2.10676   0.00000  -0.00011   0.00012   0.00001   2.10678
   A14        2.10526   0.00001   0.00000   0.00002   0.00003   2.10529
   A15        2.07117  -0.00001   0.00011  -0.00015  -0.00004   2.07112
   A16        2.10526   0.00001   0.00000   0.00002   0.00003   2.10529
   A17        2.10676   0.00000  -0.00011   0.00012   0.00001   2.10678
   A18        2.07117  -0.00001   0.00011  -0.00015  -0.00004   2.07112
    D1        0.00000   0.00000   0.00000   0.00000   0.00000   0.00000
    D2        3.14159   0.00000   0.00000   0.00000   0.00000   3.14159
    D3        3.14159   0.00000   0.00000   0.00000   0.00000   3.14159
    D4        0.00000   0.00000   0.00000   0.00000   0.00000   0.00000
    D5        3.14159   0.00000   0.00000   0.00000   0.00000   3.14159
    D6        0.00000   0.00000   0.00000   0.00000   0.00000   0.00000
    D7        0.00000   0.00000   0.00000   0.00000   0.00000   0.00000
    D8        3.14159   0.00000   0.00000   0.00000   0.00000   3.14159
    D9        3.14159   0.00000   0.00000   0.00000   0.00000   3.14159
   D10        0.00000   0.00000   0.00000   0.00000   0.00000   0.00000
   D11        0.00000   0.00000   0.00000   0.00000   0.00000   0.00000
   D12        3.14159   0.00000   0.00000   0.00000   0.00000   3.14159
   D13        3.14159   0.00000   0.00000   0.00000   0.00000   3.14159
   D14        0.00000   0.00000   0.00000   0.00000   0.00000   0.00000
   D15        0.00000   0.00000   0.00000   0.00000   0.00000   0.00000
   D16        3.14159   0.00000   0.00000   0.00000   0.00000   3.14159
   D17        3.14159   0.00000   0.00000   0.00000   0.00000   3.14159
   D18        0.00000   0.00000   0.00000   0.00000   0.00000   0.00000
   D19        0.00000   0.00000   0.00000   0.00000   0.00000   0.00000
   D20        3.14159   0.00000   0.00000   0.00000   0.00000   3.14159
   D21        0.00000   0.00000   0.00000   0.00000   0.00000   0.00000
   D22        3.14159   0.00000   0.00000   0.00000   0.00000   3.14159
   D23        3.14159   0.00000   0.00000   0.00000   0.00000   3.14159
   D24        0.00000   0.00000   0.00000   0.00000   0.00000   0.00000
         Item               Value     Threshold  Converged?
 Maximum Force            0.000112     0.000450     YES
 RMS     Force            0.000033     0.000300     YES
 Maximum Displacement     0.000254     0.001800     YES
 RMS     Displacement     0.000098     0.001200     YES
 Predicted change in Energy=-6.294889D-08
 Optimization completed.
    -- Stationary point found.
                           ----------------------------
                           !   Optimized Parameters   !
                           ! (Angstroms and Degrees)  !
 --------------------------                            --------------------------
 ! Name  Definition              Value          Derivative Info.                !
 --------------------------------------------------------------------------------
 ! R1    R(1,2)                  1.082          -DE/DX =    0.0                 !
 ! R2    R(2,3)                  1.3917         -DE/DX =    0.0001              !
 ! R3    R(2,11)                 1.3917         -DE/DX =    0.0001              !
 ! R4    R(3,4)                  1.0838         -DE/DX =    0.0                 !
 ! R5    R(3,5)                  1.4585         -DE/DX =    0.0001              !
 ! R6    R(5,6)                  1.0838         -DE/DX =    0.0                 !
 ! R7    R(5,7)                  1.3917         -DE/DX =    0.0001              !
 ! R8    R(7,8)                  1.082          -DE/DX =    0.0                 !
 ! R9    R(7,9)                  1.3917         -DE/DX =    0.0001              !
 ! R10   R(9,10)                 1.0838         -DE/DX =    0.0                 !
 ! R11   R(9,11)                 1.4585         -DE/DX =    0.0001              !
 ! R12   R(11,12)                1.0838         -DE/DX =    0.0                 !
 ! A1    A(1,2,3)              120.6223         -DE/DX =    0.0                 !
 ! A2    A(1,2,11)             120.6223         -DE/DX =    0.0                 !
 ! A3    A(3,2,11)             118.7554         -DE/DX =    0.0                 !
 ! A4    A(2,3,4)              120.7086         -DE/DX =    0.0                 !
 ! A5    A(2,3,5)              120.6223         -DE/DX =    0.0                 !
 ! A6    A(4,3,5)              118.6691         -DE/DX =    0.0                 !
 ! A7    A(3,5,6)              118.6691         -DE/DX =    0.0                 !
 ! A8    A(3,5,7)              120.6223         -DE/DX =    0.0                 !
 ! A9    A(6,5,7)              120.7086         -DE/DX =    0.0                 !
 ! A10   A(5,7,8)              120.6223         -DE/DX =    0.0                 !
 ! A11   A(5,7,9)              118.7554         -DE/DX =    0.0                 !
 ! A12   A(8,7,9)              120.6223         -DE/DX =    0.0                 !
 ! A13   A(7,9,10)             120.7086         -DE/DX =    0.0                 !
 ! A14   A(7,9,11)             120.6223         -DE/DX =    0.0                 !
 ! A15   A(10,9,11)            118.6691         -DE/DX =    0.0                 !
 ! A16   A(2,11,9)             120.6223         -DE/DX =    0.0                 !
 ! A17   A(2,11,12)            120.7086         -DE/DX =    0.0                 !
 ! A18   A(9,11,12)            118.6691         -DE/DX =    0.0                 !
 ! D1    D(1,2,3,4)              0.0            -DE/DX =    0.0                 !
 ! D2    D(1,2,3,5)            180.0            -DE/DX =    0.0                 !
 ! D3    D(11,2,3,4)           180.0            -DE/DX =    0.0                 !
 ! D4    D(11,2,3,5)             0.0            -DE/DX =    0.0                 !
 ! D5    D(1,2,11,9)           180.0            -DE/DX =    0.0                 !
 ! D6    D(1,2,11,12)            0.0            -DE/DX =    0.0                 !
 ! D7    D(3,2,11,9)             0.0            -DE/DX =    0.0                 !
 ! D8    D(3,2,11,12)          180.0            -DE/DX =    0.0                 !
 ! D9    D(2,3,5,6)            180.0            -DE/DX =    0.0                 !
 ! D10   D(2,3,5,7)              0.0            -DE/DX =    0.0                 !
 ! D11   D(4,3,5,6)              0.0            -DE/DX =    0.0                 !
 ! D12   D(4,3,5,7)            180.0            -DE/DX =    0.0                 !
 ! D13   D(3,5,7,8)            180.0            -DE/DX =    0.0                 !
 ! D14   D(3,5,7,9)              0.0            -DE/DX =    0.0                 !
 ! D15   D(6,5,7,8)              0.0            -DE/DX =    0.0                 !
 ! D16   D(6,5,7,9)            180.0            -DE/DX =    0.0                 !
 ! D17   D(5,7,9,10)           180.0            -DE/DX =    0.0                 !
 ! D18   D(5,7,9,11)             0.0            -DE/DX =    0.0                 !
 ! D19   D(8,7,9,10)             0.0            -DE/DX =    0.0                 !
 ! D20   D(8,7,9,11)           180.0            -DE/DX =    0.0                 !
 ! D21   D(7,9,11,2)             0.0            -DE/DX =    0.0                 !
 ! D22   D(7,9,11,12)          180.0            -DE/DX =    0.0                 !
 ! D23   D(10,9,11,2)          180.0            -DE/DX =    0.0                 !
 ! D24   D(10,9,11,12)           0.0            -DE/DX =    0.0                 !
 --------------------------------------------------------------------------------
 GradGradGradGradGradGradGradGradGradGradGradGradGradGradGradGradGradGrad

                          Input orientation:                          
 ---------------------------------------------------------------------
 Center     Atomic     Atomic              Coordinates (Angstroms)
 Number     Number      Type              X           Y           Z
 ---------------------------------------------------------------------
    1          1             0        0.000000    0.000000   -0.034318
    2          6             0        0.000000    0.000000    1.047655
    3          6             0        1.197653    0.000000    1.756574
    4          1             0        2.148578    0.000000    1.236624
    5          6             0        1.197653    0.000000    3.215026
    6          1             0        2.148578    0.000000    3.734976
    7          6             0        0.000000    0.000000    3.923945
    8          1             0        0.000000    0.000000    5.005918
    9          6             0       -1.197653    0.000000    3.215026
   10          1             0       -2.148578    0.000000    3.734976
   11          6             0       -1.197653    0.000000    1.756574
   12          1             0       -2.148578    0.000000    1.236624
 ---------------------------------------------------------------------
                    Distance matrix (angstroms):
                    1          2          3          4          5
     1  H    0.000000
     2  C    1.081973   0.000000
     3  C    2.154452   1.391739   0.000000
     4  H    2.496333   2.156872   1.083793   0.000000
     5  C    3.463035   2.476261   1.458452   2.195071   0.000000
     6  H    4.338659   3.440651   2.195071   2.498352   1.083793
     7  C    3.958263   2.876290   2.476261   3.440651   1.391739
     8  H    5.040236   3.958263   3.463035   4.338659   2.154452
     9  C    3.463035   2.476261   2.804384   3.887330   2.395305
    10  H    4.338659   3.440651   3.887330   4.970645   3.386386
    11  C    2.154452   1.391739   2.395305   3.386386   2.804384
    12  H    2.496333   2.156872   3.386386   4.297156   3.887330
                    6          7          8          9         10
     6  H    0.000000
     7  C    2.156872   0.000000
     8  H    2.496333   1.081973   0.000000
     9  C    3.386386   1.391739   2.154452   0.000000
    10  H    4.297156   2.156872   2.496333   1.083793   0.000000
    11  C    3.887330   2.476261   3.463035   1.458452   2.195071
    12  H    4.970645   3.440651   4.338659   2.195071   2.498352
                   11         12
    11  C    0.000000
    12  H    1.083793   0.000000
 Symmetry turned off by external request.
 Stoichiometry    C6H6(1+,2)
 Framework group  D2H[C2"(HC.CH),SG(C4H4)]
 Deg. of freedom     6
 Full point group                 D2H
 Rotational constants (GHZ):      5.7784086      5.3618127      2.7811606

 **********************************************************************

            Population analysis using the SCF density.

 **********************************************************************

 Alpha  occ. eigenvalues --  -10.39430 -10.39426 -10.39320 -10.39287 -10.35670
 Alpha  occ. eigenvalues --  -10.35652  -1.10203  -0.99047  -0.99013  -0.84837
 Alpha  occ. eigenvalues --   -0.83690  -0.75592  -0.69474  -0.68906  -0.65778
 Alpha  occ. eigenvalues --   -0.65610  -0.61157  -0.58486  -0.57316  -0.50499
 Alpha  occ. eigenvalues --   -0.49264
 Alpha virt. eigenvalues --   -0.26537  -0.22255  -0.08799  -0.08684  -0.03086
 Alpha virt. eigenvalues --   -0.02899  -0.01530   0.01153   0.01399   0.07791
 Alpha virt. eigenvalues --    0.08770   0.10940   0.11453   0.31683   0.33002
 Alpha virt. eigenvalues --    0.45307   0.45422   0.45637   0.49381   0.52080
 Alpha virt. eigenvalues --    0.54148   0.55738   0.56085   0.58535   0.58924
 Alpha virt. eigenvalues --    0.60859   0.65749   0.67996   0.75126   0.78970
 Alpha virt. eigenvalues --    0.81339   0.87577   0.89833   0.91010   1.07140
 Alpha virt. eigenvalues --    1.08095   1.11214   1.23435   1.23448   1.25203
 Alpha virt. eigenvalues --    1.27250   1.31333   1.63097   1.63784   2.21714
  Beta  occ. eigenvalues --  -10.39003 -10.38998 -10.38891 -10.38858 -10.35827
  Beta  occ. eigenvalues --  -10.35809  -1.09123  -0.98722  -0.97079  -0.83852
  Beta  occ. eigenvalues --   -0.83119  -0.75329  -0.69018  -0.68446  -0.65771
  Beta  occ. eigenvalues --   -0.65090  -0.58267  -0.58103  -0.57009  -0.48582
  Beta virt. eigenvalues --   -0.41318  -0.22318  -0.21148  -0.08612  -0.06466
  Beta virt. eigenvalues --   -0.02853  -0.02824  -0.00462   0.01319   0.01947
  Beta virt. eigenvalues --    0.08294   0.09212   0.11109   0.11807   0.32536
  Beta virt. eigenvalues --    0.33359   0.45461   0.45887   0.47155   0.49616
  Beta virt. eigenvalues --    0.52466   0.56213   0.56346   0.56826   0.58808
  Beta virt. eigenvalues --    0.61163   0.61219   0.65947   0.69041   0.75308
  Beta virt. eigenvalues --    0.79194   0.81373   0.87744   0.90083   0.91060
  Beta virt. eigenvalues --    1.07281   1.08569   1.11839   1.23751   1.24004
  Beta virt. eigenvalues --    1.25387   1.27363   1.32982   1.64290   1.64381
  Beta virt. eigenvalues --    2.22607
          Condensed to atoms (all electrons):
              1          2          3          4          5          6
     1  H    0.385160   0.385614  -0.030909  -0.002500   0.002538  -0.000021
     2  C    0.385614   5.166564   0.421900  -0.030194  -0.083729   0.002484
     3  C   -0.030909   0.421900   5.212843   0.376399   0.344967  -0.031615
     4  H   -0.002500  -0.030194   0.376399   0.380141  -0.031615  -0.002010
     5  C    0.002538  -0.083729   0.344967  -0.031615   5.212843   0.376399
     6  H   -0.000021   0.002484  -0.031615  -0.002010   0.376399   0.380141
     7  C   -0.000206  -0.005791  -0.083729   0.002484   0.421900  -0.030194
     8  H    0.000001  -0.000206   0.002538  -0.000021  -0.030909  -0.002500
     9  C    0.002538  -0.083729  -0.010778  -0.000138  -0.088054   0.003057
    10  H   -0.000021   0.002484  -0.000138   0.000001   0.003057  -0.000028
    11  C   -0.030909   0.421900  -0.088054   0.003057  -0.010778  -0.000138
    12  H   -0.002500  -0.030194   0.003057  -0.000028  -0.000138   0.000001
              7          8          9         10         11         12
     1  H   -0.000206   0.000001   0.002538  -0.000021  -0.030909  -0.002500
     2  C   -0.005791  -0.000206  -0.083729   0.002484   0.421900  -0.030194
     3  C   -0.083729   0.002538  -0.010778  -0.000138  -0.088054   0.003057
     4  H    0.002484  -0.000021  -0.000138   0.000001   0.003057  -0.000028
     5  C    0.421900  -0.030909  -0.088054   0.003057  -0.010778  -0.000138
     6  H   -0.030194  -0.002500   0.003057  -0.000028  -0.000138   0.000001
     7  C    5.166564   0.385614   0.421900  -0.030194  -0.083729   0.002484
     8  H    0.385614   0.385160  -0.030909  -0.002500   0.002538  -0.000021
     9  C    0.421900  -0.030909   5.212842   0.376399   0.344967  -0.031615
    10  H   -0.030194  -0.002500   0.376399   0.380141  -0.031615  -0.002010
    11  C   -0.083729   0.002538   0.344967  -0.031615   5.212842   0.376399
    12  H    0.002484  -0.000021  -0.031615  -0.002010   0.376399   0.380141
 Mulliken atomic charges:
              1
     1  H    0.291214
     2  C   -0.167103
     3  C   -0.116481
     4  H    0.304424
     5  C   -0.116481
     6  H    0.304424
     7  C   -0.167103
     8  H    0.291214
     9  C   -0.116480
    10  H    0.304424
    11  C   -0.116480
    12  H    0.304424
 Sum of Mulliken charges=   1.00000
 Atomic charges with hydrogens summed into heavy atoms:
              1
     1  H    0.000000
     2  C    0.124112
     3  C    0.187944
     4  H    0.000000
     5  C    0.187944
     6  H    0.000000
     7  C    0.124112
     8  H    0.000000
     9  C    0.187944
    10  H    0.000000
    11  C    0.187944
    12  H    0.000000
 Sum of Mulliken charges=   1.00000
          Atomic-Atomic Spin Densities.
              1          2          3          4          5          6
     1  H    0.003818   0.001873  -0.000883   0.000033   0.000064   0.000001
     2  C    0.001873  -0.137208  -0.007253   0.000442  -0.002800  -0.000019
     3  C   -0.000883  -0.007253   0.332598  -0.002470   0.036123  -0.000818
     4  H    0.000033   0.000442  -0.002470  -0.012983  -0.000818   0.000061
     5  C    0.000064  -0.002800   0.036123  -0.000818   0.332598  -0.002470
     6  H    0.000001  -0.000019  -0.000818   0.000061  -0.002470  -0.012983
     7  C   -0.000009   0.003470  -0.002800  -0.000019  -0.007253   0.000442
     8  H    0.000000  -0.000009   0.000064   0.000001  -0.000883   0.000033
     9  C    0.000064  -0.002800  -0.006258  -0.000015  -0.009012   0.000001
    10  H    0.000001  -0.000019  -0.000015   0.000000   0.000001   0.000002
    11  C   -0.000883  -0.007253  -0.009012   0.000001  -0.006258  -0.000015
    12  H    0.000033   0.000442   0.000001   0.000002  -0.000015   0.000000
              7          8          9         10         11         12
     1  H   -0.000009   0.000000   0.000064   0.000001  -0.000883   0.000033
     2  C    0.003470  -0.000009  -0.002800  -0.000019  -0.007253   0.000442
     3  C   -0.002800   0.000064  -0.006258  -0.000015  -0.009012   0.000001
     4  H   -0.000019   0.000001  -0.000015   0.000000   0.000001   0.000002
     5  C   -0.007253  -0.000883  -0.009012   0.000001  -0.006258  -0.000015
     6  H    0.000442   0.000033   0.000001   0.000002  -0.000015   0.000000
     7  C   -0.137208   0.001873  -0.007253   0.000442  -0.002800  -0.000019
     8  H    0.001873   0.003818  -0.000883   0.000033   0.000064   0.000001
     9  C   -0.007253  -0.000883   0.332598  -0.002470   0.036123  -0.000818
    10  H    0.000442   0.000033  -0.002470  -0.012983  -0.000818   0.000061
    11  C   -0.002800   0.000064   0.036123  -0.000818   0.332598  -0.002470
    12  H   -0.000019   0.000001  -0.000818   0.000061  -0.002470  -0.012983
 Mulliken atomic spin densities:
              1
     1  H    0.004112
     2  C   -0.151134
     3  C    0.339277
     4  H   -0.015765
     5  C    0.339277
     6  H   -0.015765
     7  C   -0.151134
     8  H    0.004112
     9  C    0.339277
    10  H   -0.015765
    11  C    0.339277
    12  H   -0.015765
 Sum of Mulliken spin densities=   1.00000
 Electronic spatial extent (au):  <R**2>=  1352.1610
 Charge=     1.0000 electrons
 Dipole moment (field-independent basis, Debye):
    X=     0.0000    Y=     0.0000    Z=    11.9398  Tot=    11.9398
 Quadrupole moment (field-independent basis, Debye-Ang):
   XX=   -18.7079   YY=   -36.4039   ZZ=     8.5143
   XY=     0.0000   XZ=     0.0000   YZ=     0.0000
 Traceless Quadrupole moment (field-independent basis, Debye-Ang):
   XX=    -3.1754   YY=   -20.8714   ZZ=    24.0468
   XY=     0.0000   XZ=     0.0000   YZ=     0.0000
 Octapole moment (field-independent basis, Debye-Ang**2):
  XXX=     0.0000  YYY=     0.0000  ZZZ=   -84.0620  XYY=     0.0000
  XXY=     0.0000  XXZ=   -46.5040  XZZ=     0.0000  YZZ=     0.0000
  YYZ=   -90.4928  XYZ=     0.0000
 Hexadecapole moment (field-independent basis, Debye-Ang**3):
 XXXX=  -194.9921 YYYY=   -36.3495 ZZZZ=  -819.8764 XXXY=     0.0000
 XXXZ=     0.0000 YYYX=     0.0000 YYYZ=     0.0000 ZZZX=    -0.0001
 ZZZY=     0.0000 XXYY=   -53.2517 XXZZ=  -183.7929 YYZZ=  -283.7714
 XXYZ=     0.0000 YYXZ=     0.0000 ZZXY=     0.0000
 N-N= 2.012257770552D+02 E-N=-9.264132118341D+02  KE= 2.285615066287D+02
                          Isotropic Fermi Contact Couplings
        Atom                 a.u.       MegaHertz       Gauss      10(-4) cm-1
     1  H(1)               0.00111       4.97610       1.77560       1.65985
     2  C(13)             -0.02331     -26.20720      -9.35138      -8.74178
     3  C(13)              0.03700      41.59316      14.84147      13.87399
     4  H(1)              -0.00479     -21.40714      -7.63860      -7.14065
     5  C(13)              0.03700      41.59316      14.84147      13.87399
     6  H(1)              -0.00479     -21.40714      -7.63860      -7.14065
     7  C(13)             -0.02331     -26.20720      -9.35138      -8.74178
     8  H(1)               0.00111       4.97610       1.77560       1.65985
     9  C(13)              0.03700      41.59316      14.84147      13.87399
    10  H(1)              -0.00479     -21.40714      -7.63860      -7.14065
    11  C(13)              0.03700      41.59316      14.84147      13.87399
    12  H(1)              -0.00479     -21.40714      -7.63860      -7.14065
 --------------------------------------------------------
       Center         ----  Spin Dipole Couplings  ----
                      3XX-RR        3YY-RR        3ZZ-RR
 --------------------------------------------------------
     1   Atom        0.004496     -0.005420      0.000924
     2   Atom        0.050468     -0.093765      0.043297
     3   Atom       -0.160932      0.315621     -0.154689
     4   Atom        0.012191     -0.007207     -0.004984
     5   Atom       -0.160932      0.315621     -0.154689
     6   Atom        0.012191     -0.007207     -0.004984
     7   Atom        0.050468     -0.093765      0.043297
     8   Atom        0.004496     -0.005420      0.000924
     9   Atom       -0.160932      0.315621     -0.154689
    10   Atom        0.012191     -0.007207     -0.004984
    11   Atom       -0.160932      0.315621     -0.154689
    12   Atom        0.012191     -0.007207     -0.004984
 --------------------------------------------------------
                        XY            XZ            YZ
 --------------------------------------------------------
     1   Atom        0.000000      0.000000      0.000000
     2   Atom        0.000000      0.000000      0.000000
     3   Atom        0.000000     -0.004439      0.000000
     4   Atom        0.000000     -0.026569      0.000000
     5   Atom        0.000000      0.004439      0.000000
     6   Atom        0.000000      0.026569      0.000000
     7   Atom        0.000000      0.000000      0.000000
     8   Atom        0.000000      0.000000      0.000000
     9   Atom        0.000000     -0.004439      0.000000
    10   Atom        0.000000     -0.026569      0.000000
    11   Atom        0.000000      0.004439      0.000000
    12   Atom        0.000000      0.026569      0.000000
 --------------------------------------------------------


 ---------------------------------------------------------------------------------
              Anisotropic Spin Dipole Couplings in Principal Axis System
 ---------------------------------------------------------------------------------

       Atom             a.u.   MegaHertz   Gauss  10(-4) cm-1        Axes

              Baa    -0.0054    -2.892    -1.032    -0.965  0.0000  1.0000  0.0000
     1 H(1)   Bbb     0.0009     0.493     0.176     0.164  0.0000  0.0000  1.0000
              Bcc     0.0045     2.399     0.856     0.800  1.0000  0.0000  0.0000
 
              Baa    -0.0938   -12.582    -4.490    -4.197  0.0000  1.0000  0.0000
     2 C(13)  Bbb     0.0433     5.810     2.073     1.938  0.0000  0.0000  1.0000
              Bcc     0.0505     6.772     2.417     2.259  1.0000  0.0000  0.0000
 
              Baa    -0.1632   -21.905    -7.816    -7.307  0.8875  0.0000  0.4609
     3 C(13)  Bbb    -0.1524   -20.448    -7.297    -6.821 -0.4609  0.0000  0.8875
              Bcc     0.3156    42.353    15.113    14.128  0.0000  1.0000  0.0000
 
              Baa    -0.0243   -12.975    -4.630    -4.328  0.5884  0.0000  0.8086
     4 H(1)   Bbb    -0.0072    -3.845    -1.372    -1.283  0.0000  1.0000  0.0000
              Bcc     0.0315    16.821     6.002     5.611  0.8086  0.0000 -0.5884
 
              Baa    -0.1632   -21.905    -7.816    -7.307  0.8875  0.0000 -0.4609
     5 C(13)  Bbb    -0.1524   -20.448    -7.297    -6.821  0.4609  0.0000  0.8875
              Bcc     0.3156    42.353    15.113    14.128  0.0000  1.0000  0.0000
 
              Baa    -0.0243   -12.975    -4.630    -4.328 -0.5884  0.0000  0.8086
     6 H(1)   Bbb    -0.0072    -3.845    -1.372    -1.283  0.0000  1.0000  0.0000
              Bcc     0.0315    16.821     6.002     5.611  0.8086  0.0000  0.5884
 
              Baa    -0.0938   -12.582    -4.490    -4.197  0.0000  1.0000  0.0000
     7 C(13)  Bbb     0.0433     5.810     2.073     1.938  0.0000  0.0000  1.0000
              Bcc     0.0505     6.772     2.417     2.259  1.0000  0.0000  0.0000
 
              Baa    -0.0054    -2.892    -1.032    -0.965  0.0000  1.0000  0.0000
     8 H(1)   Bbb     0.0009     0.493     0.176     0.164  0.0000  0.0000  1.0000
              Bcc     0.0045     2.399     0.856     0.800  1.0000  0.0000  0.0000
 
              Baa    -0.1632   -21.905    -7.816    -7.307  0.8875  0.0000  0.4609
     9 C(13)  Bbb    -0.1524   -20.448    -7.297    -6.821 -0.4609  0.0000  0.8875
              Bcc     0.3156    42.353    15.113    14.128  0.0000  1.0000  0.0000
 
              Baa    -0.0243   -12.975    -4.630    -4.328  0.5884  0.0000  0.8086
    10 H(1)   Bbb    -0.0072    -3.845    -1.372    -1.283  0.0000  1.0000  0.0000
              Bcc     0.0315    16.821     6.002     5.611  0.8086  0.0000 -0.5884
 
              Baa    -0.1632   -21.905    -7.816    -7.307  0.8875  0.0000 -0.4609
    11 C(13)  Bbb    -0.1524   -20.448    -7.297    -6.821  0.4609  0.0000  0.8875
              Bcc     0.3156    42.353    15.113    14.128  0.0000  1.0000  0.0000
 
              Baa    -0.0243   -12.975    -4.630    -4.328 -0.5884  0.0000  0.8086
    12 H(1)   Bbb    -0.0072    -3.845    -1.372    -1.283  0.0000  1.0000  0.0000
              Bcc     0.0315    16.821     6.002     5.611  0.8086  0.0000  0.5884
 

 ---------------------------------------------------------------------------------

 Atom   4 needs variable   1=   1.0837928341 but is    1.0819728099
 Input z-matrix variables are not compatible with final structure.
 1|1|UNPC-UNK|FOpt|UB3LYP|3-21G|C6H6(1+,2)|PCUSER|29-May-2009|0||# UB3L
 YP/3-21G opt nosym||_Benzene||1,2|H,0.0000000027,0.0000000004,-0.03431
 78011|C,-0.0000000013,-0.0000000016,1.0476550088|C,1.197652666,0.00000
 0001,1.7565738049|H,2.1485779643,0.0000000001,1.2366238224|C,1.1976526
 659,-0.0000000027,3.2150261951|H,2.1485779642,0.0000000012,3.734976177
 6|C,-0.0000000013,0.0000000005,3.9239449912|H,0.0000000027,0.000000000
 8,5.0059178011|C,-1.1976526668,-0.0000000023,3.2150261933|H,-2.1485779
 648,0.0000000005,3.7349761808|C,-1.1976526668,0.0000000018,1.756573806
 6|H,-2.1485779648,0.0000000002,1.2366238193||Version=IA32W-G03RevE.01|
 HF=-230.6432718|S2=0.764246|S2-1=0.|S2A=0.750121|RMSD=7.807e-009|RMSF=
 4.623e-005|Thermal=0.|Dipole=-0.0000015,0.,0.|PG=D02H [C2"(H1C1.C1H1),
 SG(C4H4)]||@


 CONFIDENCE IS WHAT YOU FEEL BEFORE YOU FULLY
 COMPREHEND THE SITUATION.
 Job cpu time:  0 days  0 hours  1 minutes 36.0 seconds.
 File lengths (MBytes):  RWF=     16 Int=      0 D2E=      0 Chk=      7 Scr=      1
 Normal termination of Gaussian 03 at Fri May 29 09:46:33 2009.
