 Entering Gaussian System, Link 0=g09
 Initial command:
 /ichec/packages/gaussian/09b01/l1.exe /ichec/scratch/gaussian/Gau-13710.inp -scrdir=/ichec/scratch/gaussian/
 Entering Link 1 = /ichec/packages/gaussian/09b01/l1.exe PID=     13711.
  
 Copyright (c) 1988,1990,1992,1993,1995,1998,2003,2009,2010,
            Gaussian, Inc.  All Rights Reserved.
  
 This is part of the Gaussian(R) 09 program.  It is based on
 the Gaussian(R) 03 system (copyright 2003, Gaussian, Inc.),
 the Gaussian(R) 98 system (copyright 1998, Gaussian, Inc.),
 the Gaussian(R) 94 system (copyright 1995, Gaussian, Inc.),
 the Gaussian 92(TM) system (copyright 1992, Gaussian, Inc.),
 the Gaussian 90(TM) system (copyright 1990, Gaussian, Inc.),
 the Gaussian 88(TM) system (copyright 1988, Gaussian, Inc.),
 the Gaussian 86(TM) system (copyright 1986, Carnegie Mellon
 University), and the Gaussian 82(TM) system (copyright 1983,
 Carnegie Mellon University). Gaussian is a federally registered
 trademark of Gaussian, Inc.
  
 This software contains proprietary and confidential information,
 including trade secrets, belonging to Gaussian, Inc.
  
 This software is provided under written license and may be
 used, copied, transmitted, or stored only in accord with that
 written license.
  
 The following legend is applicable only to US Government
 contracts under FAR:
  
                    RESTRICTED RIGHTS LEGEND
  
 Use, reproduction and disclosure by the US Government is
 subject to restrictions as set forth in subparagraphs (a)
 and (c) of the Commercial Computer Software - Restricted
 Rights clause in FAR 52.227-19.
  
 Gaussian, Inc.
 340 Quinnipiac St., Bldg. 40, Wallingford CT 06492
  
  
 ---------------------------------------------------------------
 Warning -- This program may not be used in any manner that
 competes with the business of Gaussian, Inc. or will provide
 assistance to any competitor of Gaussian, Inc.  The licensee
 of this program is prohibited from giving any competitor of
 Gaussian, Inc. access to this program.  By using this program,
 the user acknowledges that Gaussian, Inc. is engaged in the
 business of creating and licensing software in the field of
 computational chemistry and represents and warrants to the
 licensee that it is not a competitor of Gaussian, Inc. and that
 it will not use this program in any manner prohibited above.
 ---------------------------------------------------------------
  

 Cite this work as:
 Gaussian 09, Revision B.01,
 M. J. Frisch, G. W. Trucks, H. B. Schlegel, G. E. Scuseria, 
 M. A. Robb, J. R. Cheeseman, G. Scalmani, V. Barone, B. Mennucci, 
 G. A. Petersson, H. Nakatsuji, M. Caricato, X. Li, H. P. Hratchian, 
 A. F. Izmaylov, J. Bloino, G. Zheng, J. L. Sonnenberg, M. Hada, 
 M. Ehara, K. Toyota, R. Fukuda, J. Hasegawa, M. Ishida, T. Nakajima, 
 Y. Honda, O. Kitao, H. Nakai, T. Vreven, J. A. Montgomery, Jr., 
 J. E. Peralta, F. Ogliaro, M. Bearpark, J. J. Heyd, E. Brothers, 
 K. N. Kudin, V. N. Staroverov, T. Keith, R. Kobayashi, J. Normand, 
 K. Raghavachari, A. Rendell, J. C. Burant, S. S. Iyengar, J. Tomasi, 
 M. Cossi, N. Rega, J. M. Millam, M. Klene, J. E. Knox, J. B. Cross, 
 V. Bakken, C. Adamo, J. Jaramillo, R. Gomperts, R. E. Stratmann, 
 O. Yazyev, A. J. Austin, R. Cammi, C. Pomelli, J. W. Ochterski, 
 R. L. Martin, K. Morokuma, V. G. Zakrzewski, G. A. Voth, 
 P. Salvador, J. J. Dannenberg, S. Dapprich, A. D. Daniels, 
 O. Farkas, J. B. Foresman, J. V. Ortiz, J. Cioslowski, 
 and D. J. Fox, Gaussian, Inc., Wallingford CT, 2010.
 
 ******************************************
 Gaussian 09:  EM64L-G09RevB.01 12-Aug-2010
                 4-Nov-2012 
 ******************************************
 %chk=benzene_trip.chk
 %mem=12GB
 %nproc=12
 Will use up to   12 processors via shared memory.
 ----------------------------------------------------------------------
 # UB3LYP/3-21G nosym pop=full iop(3/33=1,3/36=-1) guess=read geom=allc
 heck
 ----------------------------------------------------------------------
 1/29=7,38=1/1;
 2/12=2,15=1,40=1/2;
 3/5=5,11=2,14=-4,16=1,25=1,30=1,33=1,36=-1,74=-5,116=2/1,2,3;
 4/5=1/1;
 5/5=2,38=6/2;
 6/7=3,28=1/1;
 99/5=1,9=1/99;
 -------
 Benzene
 -------
 Redundant internal coordinates taken from checkpoint file:
 benzene_trip.chk
 Charge =  1 Multiplicity = 2
 H,0,-0.0000000224,0.0000000001,-0.0343178031
 C,0,0.0000000141,-0.0000000002,1.0476550085
 C,0,1.1976526832,0.0000000002,1.756573808
 H,0,2.1485779606,-0.0000000001,1.2366238236
 C,0,1.1976526832,-0.0000000003,3.215026192
 H,0,2.1485779606,0.0000000001,3.7349761764
 C,0,0.0000000141,0.0000000002,3.9239449915
 H,0,-0.0000000224,-0.0000000001,5.0059178031
 C,0,-1.1976526542,-0.0000000003,3.2150261947
 H,0,-2.1485779813,0.0000000001,3.7349761715
 C,0,-1.1976526542,0.0000000002,1.7565738053
 H,0,-2.1485779813,-0.0000000001,1.2366238285
 Recover connectivity data from disk.
                          Input orientation:                          
 ---------------------------------------------------------------------
 Center     Atomic      Atomic             Coordinates (Angstroms)
 Number     Number       Type             X           Y           Z
 ---------------------------------------------------------------------
      1          1           0        0.000000    0.000000   -0.034318
      2          6           0        0.000000    0.000000    1.047655
      3          6           0        1.197653    0.000000    1.756574
      4          1           0        2.148578    0.000000    1.236624
      5          6           0        1.197653    0.000000    3.215026
      6          1           0        2.148578    0.000000    3.734976
      7          6           0        0.000000    0.000000    3.923945
      8          1           0        0.000000    0.000000    5.005918
      9          6           0       -1.197653    0.000000    3.215026
     10          1           0       -2.148578    0.000000    3.734976
     11          6           0       -1.197653    0.000000    1.756574
     12          1           0       -2.148578    0.000000    1.236624
 ---------------------------------------------------------------------
                    Distance matrix (angstroms):
                    1          2          3          4          5
     1  H    0.000000
     2  C    1.081973   0.000000
     3  C    2.154452   1.391739   0.000000
     4  H    2.496333   2.156872   1.083793   0.000000
     5  C    3.463035   2.476261   1.458452   2.195071   0.000000
     6  H    4.338659   3.440651   2.195071   2.498352   1.083793
     7  C    3.958263   2.876290   2.476261   3.440651   1.391739
     8  H    5.040236   3.958263   3.463035   4.338659   2.154452
     9  C    3.463035   2.476261   2.804384   3.887330   2.395305
    10  H    4.338659   3.440651   3.887330   4.970645   3.386386
    11  C    2.154452   1.391739   2.395305   3.386386   2.804384
    12  H    2.496333   2.156872   3.386386   4.297156   3.887330
                    6          7          8          9         10
     6  H    0.000000
     7  C    2.156872   0.000000
     8  H    2.496333   1.081973   0.000000
     9  C    3.386386   1.391739   2.154452   0.000000
    10  H    4.297156   2.156872   2.496333   1.083793   0.000000
    11  C    3.887330   2.476261   3.463035   1.458452   2.195071
    12  H    4.970645   3.440651   4.338659   2.195071   2.498352
                   11         12
    11  C    0.000000
    12  H    1.083793   0.000000
 Symmetry turned off by external request.
 Stoichiometry    C6H6(1+,2)
 Framework group  C2V[SGV(C6H6)]
 Deg. of freedom    11
 Full point group                 C2V     NOp   4
 Rotational constants (GHZ):      5.7784086      5.3618127      2.7811606
 Standard basis: 3-21G (6D, 7F)
                         Coordinates in L301:                         
 ---------------------------------------------------------------------
 Center     Atomic      Atomic             Coordinates (Angstroms)
 Number     Number       Type             X           Y           Z
 ---------------------------------------------------------------------
      1          1           0        0.000000    0.000000   -0.034318
      2          6           0        0.000000    0.000000    1.047655
      3          6           0        1.197653    0.000000    1.756574
      4          1           0        2.148578    0.000000    1.236624
      5          6           0        1.197653    0.000000    3.215026
      6          1           0        2.148578    0.000000    3.734976
      7          6           0        0.000000    0.000000    3.923945
      8          1           0        0.000000    0.000000    5.005918
      9          6           0       -1.197653    0.000000    3.215026
     10          1           0       -2.148578    0.000000    3.734976
     11          6           0       -1.197653    0.000000    1.756574
     12          1           0       -2.148578    0.000000    1.236624
 ---------------------------------------------------------------------
 FixB: optimizing general contractions.
 Ernie: Thresh=  0.10000D-02 Tol=  0.10000D-05 Strict=F.
 IA=     1 ShT= 0 ShC= 0 NL=   2 NS=   1.
 IA=     1 L=0 SC=0 ISt=    0 NBk=    0 NP=    0 IndPr=    0.
 IA=     2 ShT= 0 ShC= 0 NL=   1 NS=   0.
 IA=     2 L=0 SC=0 ISt=    0 NBk=    0 NP=    0 IndPr=    0.
 IA=     2 ShT= 1 ShC= 0 NL=   2 NS=   1.
 IA=     2 L=1 SC=0 ISt=    0 NBk=    0 NP=    0 IndPr=    0.
 IA=     3 ShT= 0 ShC= 0 NL=   1 NS=   0.
 IA=     3 L=0 SC=0 ISt=    0 NBk=    0 NP=    0 IndPr=    0.
 IA=     3 ShT= 1 ShC= 0 NL=   2 NS=   1.
 IA=     3 L=1 SC=0 ISt=    0 NBk=    0 NP=    0 IndPr=    0.
 IA=     4 ShT= 0 ShC= 0 NL=   2 NS=   1.
 IA=     4 L=0 SC=0 ISt=    0 NBk=    0 NP=    0 IndPr=    0.
 IA=     5 ShT= 0 ShC= 0 NL=   1 NS=   0.
 IA=     5 L=0 SC=0 ISt=    0 NBk=    0 NP=    0 IndPr=    0.
 IA=     5 ShT= 1 ShC= 0 NL=   2 NS=   1.
 IA=     5 L=1 SC=0 ISt=    0 NBk=    0 NP=    0 IndPr=    0.
 IA=     6 ShT= 0 ShC= 0 NL=   2 NS=   1.
 IA=     6 L=0 SC=0 ISt=    0 NBk=    0 NP=    0 IndPr=    0.
 IA=     7 ShT= 0 ShC= 0 NL=   1 NS=   0.
 IA=     7 L=0 SC=0 ISt=    0 NBk=    0 NP=    0 IndPr=    0.
 IA=     7 ShT= 1 ShC= 0 NL=   2 NS=   1.
 IA=     7 L=1 SC=0 ISt=    0 NBk=    0 NP=    0 IndPr=    0.
 IA=     8 ShT= 0 ShC= 0 NL=   2 NS=   1.
 IA=     8 L=0 SC=0 ISt=    0 NBk=    0 NP=    0 IndPr=    0.
 IA=     9 ShT= 0 ShC= 0 NL=   1 NS=   0.
 IA=     9 L=0 SC=0 ISt=    0 NBk=    0 NP=    0 IndPr=    0.
 IA=     9 ShT= 1 ShC= 0 NL=   2 NS=   1.
 IA=     9 L=1 SC=0 ISt=    0 NBk=    0 NP=    0 IndPr=    0.
 IA=    10 ShT= 0 ShC= 0 NL=   2 NS=   1.
 IA=    10 L=0 SC=0 ISt=    0 NBk=    0 NP=    0 IndPr=    0.
 IA=    11 ShT= 0 ShC= 0 NL=   1 NS=   0.
 IA=    11 L=0 SC=0 ISt=    0 NBk=    0 NP=    0 IndPr=    0.
 IA=    11 ShT= 1 ShC= 0 NL=   2 NS=   1.
 IA=    11 L=1 SC=0 ISt=    0 NBk=    0 NP=    0 IndPr=    0.
 IA=    12 ShT= 0 ShC= 0 NL=   2 NS=   1.
 IA=    12 L=0 SC=0 ISt=    0 NBk=    0 NP=    0 IndPr=    0.
 LdAtmC:  AtmChg=     1.000000     6.000000     6.000000     1.000000     6.000000
 LdAtmC:  AtmChg=     1.000000     6.000000     1.000000     6.000000     1.000000
 LdAtmC:  AtmChg=     6.000000     1.000000
 AtZEff=     -1.0000000     -3.6000000     -3.6000000     -1.0000000     -3.6000000
 AtZEff=     -1.0000000     -3.6000000     -1.0000000     -3.6000000     -1.0000000
 AtZEff=     -3.6000000     -1.0000000
 Integral buffers will be    131072 words long.
 Raffenetti 2 integral format.
 Two-electron integral symmetry is turned off.
    66 basis functions,   108 primitive gaussians,    66 cartesian basis functions
    21 alpha electrons       20 beta electrons
       nuclear repulsion energy       201.2257769748 Hartrees.
 IS=     1 IAt=     1 ISR=     1 T=0 IP=      1 IndIP=      1 IndIPD=      0 C=  3.971513D-01  0.000000D+00                             NZ=T
 IS=     1 IAt=     1 ISR=     1 T=0 IP=      2 IndIP=      2 IndIPD=      1 C=  5.579200D-01  0.000000D+00                             NZ=T
 IS=     2 IAt=     1 ISR=     2 T=0 IP=      1 IndIP=      3 IndIPD=      0 C=  1.995672D-01  0.000000D+00                             NZ=T
 IS=     3 IAt=     2 ISR=     1 T=0 IP=      1 IndIP=      4 IndIPD=      0 C=  2.093132D+00  0.000000D+00                             NZ=T
 IS=     3 IAt=     2 ISR=     1 T=0 IP=      2 IndIP=      5 IndIPD=      1 C=  2.936751D+00  0.000000D+00                             NZ=T
 IS=     3 IAt=     2 ISR=     1 T=0 IP=      3 IndIP=      6 IndIPD=      2 C=  1.801737D+00  0.000000D+00                             NZ=T
 IS=     4 IAt=     2 ISR=     2 T=1 IP=      1 IndIP=      7 IndIPD=      0 C= -7.473843D-01  1.709178D+00                             NZ=T
 IS=     4 IAt=     2 ISR=     2 T=1 IP=      2 IndIP=      8 IndIPD=      1 C=  7.126610D-01  8.856221D-01                             NZ=T
 IS=     5 IAt=     2 ISR=     3 T=1 IP=      1 IndIP=      9 IndIPD=      0 C=  2.098285D-01  1.857223D-01                             NZ=T
 IS=     6 IAt=     3 ISR=     1 T=0 IP=      1 IndIP=     10 IndIPD=      0 C=  2.093132D+00  0.000000D+00                             NZ=T
 IS=     6 IAt=     3 ISR=     1 T=0 IP=      2 IndIP=     11 IndIPD=      1 C=  2.936751D+00  0.000000D+00                             NZ=T
 IS=     6 IAt=     3 ISR=     1 T=0 IP=      3 IndIP=     12 IndIPD=      2 C=  1.801737D+00  0.000000D+00                             NZ=T
 IS=     7 IAt=     3 ISR=     2 T=1 IP=      1 IndIP=     13 IndIPD=      0 C= -7.473843D-01  1.709178D+00                             NZ=T
 IS=     7 IAt=     3 ISR=     2 T=1 IP=      2 IndIP=     14 IndIPD=      1 C=  7.126610D-01  8.856221D-01                             NZ=T
 IS=     8 IAt=     3 ISR=     3 T=1 IP=      1 IndIP=     15 IndIPD=      0 C=  2.098285D-01  1.857223D-01                             NZ=T
 IS=     9 IAt=     4 ISR=     1 T=0 IP=      1 IndIP=     16 IndIPD=      0 C=  3.971513D-01  0.000000D+00                             NZ=T
 IS=     9 IAt=     4 ISR=     1 T=0 IP=      2 IndIP=     17 IndIPD=      1 C=  5.579200D-01  0.000000D+00                             NZ=T
 IS=    10 IAt=     4 ISR=     2 T=0 IP=      1 IndIP=     18 IndIPD=      0 C=  1.995672D-01  0.000000D+00                             NZ=T
 IS=    11 IAt=     5 ISR=     1 T=0 IP=      1 IndIP=     19 IndIPD=      0 C=  2.093132D+00  0.000000D+00                             NZ=T
 IS=    11 IAt=     5 ISR=     1 T=0 IP=      2 IndIP=     20 IndIPD=      1 C=  2.936751D+00  0.000000D+00                             NZ=T
 IS=    11 IAt=     5 ISR=     1 T=0 IP=      3 IndIP=     21 IndIPD=      2 C=  1.801737D+00  0.000000D+00                             NZ=T
 IS=    12 IAt=     5 ISR=     2 T=1 IP=      1 IndIP=     22 IndIPD=      0 C= -7.473843D-01  1.709178D+00                             NZ=T
 IS=    12 IAt=     5 ISR=     2 T=1 IP=      2 IndIP=     23 IndIPD=      1 C=  7.126610D-01  8.856221D-01                             NZ=T
 IS=    13 IAt=     5 ISR=     3 T=1 IP=      1 IndIP=     24 IndIPD=      0 C=  2.098285D-01  1.857223D-01                             NZ=T
 IS=    14 IAt=     6 ISR=     1 T=0 IP=      1 IndIP=     25 IndIPD=      0 C=  3.971513D-01  0.000000D+00                             NZ=T
 IS=    14 IAt=     6 ISR=     1 T=0 IP=      2 IndIP=     26 IndIPD=      1 C=  5.579200D-01  0.000000D+00                             NZ=T
 IS=    15 IAt=     6 ISR=     2 T=0 IP=      1 IndIP=     27 IndIPD=      0 C=  1.995672D-01  0.000000D+00                             NZ=T
 IS=    16 IAt=     7 ISR=     1 T=0 IP=      1 IndIP=     28 IndIPD=      0 C=  2.093132D+00  0.000000D+00                             NZ=T
 IS=    16 IAt=     7 ISR=     1 T=0 IP=      2 IndIP=     29 IndIPD=      1 C=  2.936751D+00  0.000000D+00                             NZ=T
 IS=    16 IAt=     7 ISR=     1 T=0 IP=      3 IndIP=     30 IndIPD=      2 C=  1.801737D+00  0.000000D+00                             NZ=T
 IS=    17 IAt=     7 ISR=     2 T=1 IP=      1 IndIP=     31 IndIPD=      0 C= -7.473843D-01  1.709178D+00                             NZ=T
 IS=    17 IAt=     7 ISR=     2 T=1 IP=      2 IndIP=     32 IndIPD=      1 C=  7.126610D-01  8.856221D-01                             NZ=T
 IS=    18 IAt=     7 ISR=     3 T=1 IP=      1 IndIP=     33 IndIPD=      0 C=  2.098285D-01  1.857223D-01                             NZ=T
 IS=    19 IAt=     8 ISR=     1 T=0 IP=      1 IndIP=     34 IndIPD=      0 C=  3.971513D-01  0.000000D+00                             NZ=T
 IS=    19 IAt=     8 ISR=     1 T=0 IP=      2 IndIP=     35 IndIPD=      1 C=  5.579200D-01  0.000000D+00                             NZ=T
 IS=    20 IAt=     8 ISR=     2 T=0 IP=      1 IndIP=     36 IndIPD=      0 C=  1.995672D-01  0.000000D+00                             NZ=T
 IS=    21 IAt=     9 ISR=     1 T=0 IP=      1 IndIP=     37 IndIPD=      0 C=  2.093132D+00  0.000000D+00                             NZ=T
 IS=    21 IAt=     9 ISR=     1 T=0 IP=      2 IndIP=     38 IndIPD=      1 C=  2.936751D+00  0.000000D+00                             NZ=T
 IS=    21 IAt=     9 ISR=     1 T=0 IP=      3 IndIP=     39 IndIPD=      2 C=  1.801737D+00  0.000000D+00                             NZ=T
 IS=    22 IAt=     9 ISR=     2 T=1 IP=      1 IndIP=     40 IndIPD=      0 C= -7.473843D-01  1.709178D+00                             NZ=T
 IS=    22 IAt=     9 ISR=     2 T=1 IP=      2 IndIP=     41 IndIPD=      1 C=  7.126610D-01  8.856221D-01                             NZ=T
 IS=    23 IAt=     9 ISR=     3 T=1 IP=      1 IndIP=     42 IndIPD=      0 C=  2.098285D-01  1.857223D-01                             NZ=T
 IS=    24 IAt=    10 ISR=     1 T=0 IP=      1 IndIP=     43 IndIPD=      0 C=  3.971513D-01  0.000000D+00                             NZ=T
 IS=    24 IAt=    10 ISR=     1 T=0 IP=      2 IndIP=     44 IndIPD=      1 C=  5.579200D-01  0.000000D+00                             NZ=T
 IS=    25 IAt=    10 ISR=     2 T=0 IP=      1 IndIP=     45 IndIPD=      0 C=  1.995672D-01  0.000000D+00                             NZ=T
 IS=    26 IAt=    11 ISR=     1 T=0 IP=      1 IndIP=     46 IndIPD=      0 C=  2.093132D+00  0.000000D+00                             NZ=T
 IS=    26 IAt=    11 ISR=     1 T=0 IP=      2 IndIP=     47 IndIPD=      1 C=  2.936751D+00  0.000000D+00                             NZ=T
 IS=    26 IAt=    11 ISR=     1 T=0 IP=      3 IndIP=     48 IndIPD=      2 C=  1.801737D+00  0.000000D+00                             NZ=T
 IS=    27 IAt=    11 ISR=     2 T=1 IP=      1 IndIP=     49 IndIPD=      0 C= -7.473843D-01  1.709178D+00                             NZ=T
 IS=    27 IAt=    11 ISR=     2 T=1 IP=      2 IndIP=     50 IndIPD=      1 C=  7.126610D-01  8.856221D-01                             NZ=T
 IS=    28 IAt=    11 ISR=     3 T=1 IP=      1 IndIP=     51 IndIPD=      0 C=  2.098285D-01  1.857223D-01                             NZ=T
 IS=    29 IAt=    12 ISR=     1 T=0 IP=      1 IndIP=     52 IndIPD=      0 C=  3.971513D-01  0.000000D+00                             NZ=T
 IS=    29 IAt=    12 ISR=     1 T=0 IP=      2 IndIP=     53 IndIPD=      1 C=  5.579200D-01  0.000000D+00                             NZ=T
 IS=    30 IAt=    12 ISR=     2 T=0 IP=      1 IndIP=     54 IndIPD=      0 C=  1.995672D-01  0.000000D+00                             NZ=T
 NAtoms=   12 NActive=   12 NUniq=   12 SFac= 1.00D+00 NAtFMM=   50 NAOKFM=F Big=F
 NPDir=0 NMtPBC=     1 NCelOv=     1 NCel=       1 NClECP=     1 NCelD=      1
         NCelK=      1 NCelE2=     1 NClLst=     1 CellRange=     0.0.
 One-electron integrals computed using PRISM.
 Entering OneElI...
 Calculate overlap and kinetic energy integrals
    NBasis =  66  MinDer = 0  MaxDer = 0
 Requested accuracy = 0.1000D-12
 PrsmSu:  NPrtUS=  12 ThrOK=T IAlg=1 NPAlg=2 LenDen=           0.
 Prism:   IPart=     0 DynPar=F LinDyn=F Incr=           1.
 PRISM was handed   134200100 working-precision words and   456 shell-pairs
 PRISM was handed   134200100 working-precision words and   456 shell-pairs
 PRISM was handed   134200100 working-precision words and   456 shell-pairs
 PRISM was handed   134200100 working-precision words and   456 shell-pairs
 PRISM was handed   134200100 working-precision words and   456 shell-pairs
 PRISM was handed   134200100 working-precision words and   456 shell-pairs
 PRISM was handed   134200100 working-precision words and   456 shell-pairs
 PRISM was handed   134200100 working-precision words and   456 shell-pairs
 PRISM was handed   134200100 working-precision words and   456 shell-pairs
 PRISM was handed   134200100 working-precision words and   456 shell-pairs
 PRISM was handed   134200100 working-precision words and   456 shell-pairs
 PRISM was handed   134200100 working-precision words and   456 shell-pairs
 IPart=  7 NShTot=          34 NBatch=          12 AvBLen=         2.8
 IPart=  9 NShTot=          33 NBatch=          12 AvBLen=         2.8
 IPart=  6 NShTot=          34 NBatch=          12 AvBLen=         2.8
 IPart= 11 NShTot=          33 NBatch=          12 AvBLen=         2.8
 IPart= 10 NShTot=          33 NBatch=          12 AvBLen=         2.8
 IPart=  8 NShTot=          34 NBatch=          12 AvBLen=         2.8
 IPart=  1 NShTot=          43 NBatch=          16 AvBLen=         2.7
 IPart=  2 NShTot=          43 NBatch=          16 AvBLen=         2.7
 IPart=  4 NShTot=          42 NBatch=          15 AvBLen=         2.8
 IPart=  0 NShTot=          43 NBatch=          16 AvBLen=         2.7
 IPart=  3 NShTot=          42 NBatch=          15 AvBLen=         2.8
 IPart=  5 NShTot=          42 NBatch=          15 AvBLen=         2.8
 PrSmSu:  NxtVal=             13.
 *** Overlap *** 
                1             2             3             4             5 
      1  0.100000D+01
      2  0.645898D+00  0.100000D+01
      3  0.198141D-01  0.817243D-01  0.100000D+01
      4  0.199290D+00  0.404921D+00  0.191447D+00  0.100000D+01
      5  0.000000D+00  0.000000D+00  0.000000D+00  0.000000D+00  0.100000D+01
      6  0.000000D+00  0.000000D+00  0.000000D+00  0.000000D+00  0.000000D+00
      7 -0.299094D+00 -0.235320D+00  0.000000D+00  0.000000D+00  0.000000D+00
      8  0.342038D+00  0.672636D+00  0.180314D+00  0.761357D+00  0.000000D+00
      9  0.000000D+00  0.000000D+00  0.000000D+00  0.000000D+00  0.528959D+00
     10  0.000000D+00  0.000000D+00  0.000000D+00  0.000000D+00  0.000000D+00
     11 -0.504656D+00 -0.588309D+00  0.000000D+00  0.000000D+00  0.000000D+00
     12  0.250316D-05  0.900033D-02  0.000000D+00  0.469460D-02  0.117215D-01
     13  0.148945D-02  0.670299D-01  0.469460D-02  0.951304D-01  0.139164D+00
     14 -0.217526D-02 -0.410113D-01 -0.117215D-01 -0.139164D+00 -0.165669D+00
     15  0.000000D+00  0.000000D+00  0.000000D+00  0.000000D+00  0.000000D+00
     16 -0.325274D-02 -0.613257D-01 -0.693825D-02 -0.823746D-01 -0.130053D+00
     17  0.473960D-01  0.208080D+00  0.484698D-01  0.265780D+00  0.177982D+00
     18 -0.771958D-01 -0.201452D+00 -0.941535D-01 -0.414831D+00 -0.109126D+00
     19  0.000000D+00  0.000000D+00  0.000000D+00  0.000000D+00  0.000000D+00
     20 -0.115434D+00 -0.301238D+00 -0.557317D-01 -0.245548D+00 -0.169776D+00
     21  0.848412D-04  0.224533D-01  0.243677D-05  0.146754D-02  0.384480D-02
     22  0.224533D-01  0.130244D+00  0.894086D-02  0.666673D-01  0.731668D-01
     23  0.000000D+00  0.842849D-04  0.000000D+00  0.000000D+00  0.000000D+00
     24  0.000000D+00  0.143980D-02  0.000000D+00  0.319960D-03  0.450334D-03
     25  0.000000D+00 -0.827037D-03  0.000000D+00 -0.450334D-03 -0.474244D-03
     26  0.000000D+00  0.000000D+00  0.000000D+00  0.000000D+00  0.000000D+00
     27  0.000000D+00 -0.224383D-02  0.000000D+00 -0.814962D-03 -0.114918D-02
     28  0.730666D-03  0.173420D-01  0.281855D-02  0.267206D-01  0.168655D-01
     29 -0.118607D-02 -0.167895D-01 -0.547364D-02 -0.420815D-01 -0.102567D-01
     30  0.000000D+00  0.000000D+00  0.000000D+00  0.000000D+00  0.000000D+00
     31 -0.321791D-02 -0.455515D-01 -0.990554D-02 -0.761542D-01 -0.490335D-01
     32  0.000000D+00  0.260127D-04  0.000000D+00  0.000000D+00  0.000000D+00
     33  0.260127D-04  0.211814D-02  0.929788D-04  0.156132D-02  0.161040D-02
     34  0.000000D+00  0.816259D-05  0.000000D+00  0.000000D+00  0.000000D+00
     35  0.000000D+00  0.209023D-03  0.000000D+00  0.168405D-04  0.000000D+00
     36  0.000000D+00  0.000000D+00  0.000000D+00  0.000000D+00  0.844132D-05
     37  0.000000D+00  0.000000D+00  0.000000D+00  0.000000D+00  0.000000D+00
     38  0.000000D+00 -0.389677D-03  0.000000D+00 -0.568823D-04  0.000000D+00
     39  0.911048D-04  0.500687D-02  0.660015D-03  0.821704D-02  0.000000D+00
     40  0.000000D+00  0.000000D+00  0.000000D+00  0.000000D+00  0.507005D-02
     41  0.000000D+00  0.000000D+00  0.000000D+00  0.000000D+00  0.000000D+00
     42 -0.488320D-03 -0.160206D-01 -0.307786D-02 -0.311737D-01  0.000000D+00
     43  0.000000D+00  0.000000D+00  0.000000D+00  0.000000D+00  0.000000D+00
     44  0.000000D+00  0.246167D-03  0.816259D-05  0.209023D-03  0.000000D+00
     45  0.000000D+00  0.842849D-04  0.000000D+00  0.000000D+00  0.000000D+00
     46  0.000000D+00  0.143980D-02  0.000000D+00  0.319960D-03 -0.450334D-03
     47  0.000000D+00  0.827037D-03  0.000000D+00  0.450334D-03 -0.474244D-03
     48  0.000000D+00  0.000000D+00  0.000000D+00  0.000000D+00  0.000000D+00
     49  0.000000D+00 -0.224383D-02  0.000000D+00 -0.814962D-03  0.114918D-02
     50  0.730666D-03  0.173420D-01  0.281855D-02  0.267206D-01 -0.168655D-01
     51  0.118607D-02  0.167895D-01  0.547364D-02  0.420815D-01 -0.102567D-01
     52  0.000000D+00  0.000000D+00  0.000000D+00  0.000000D+00  0.000000D+00
     53 -0.321791D-02 -0.455515D-01 -0.990554D-02 -0.761542D-01  0.490335D-01
     54  0.000000D+00  0.260127D-04  0.000000D+00  0.000000D+00  0.000000D+00
     55  0.260127D-04  0.211814D-02  0.929788D-04  0.156132D-02 -0.161040D-02
     56  0.250316D-05  0.900033D-02  0.000000D+00  0.469460D-02 -0.117215D-01
     57  0.148945D-02  0.670299D-01  0.469460D-02  0.951304D-01 -0.139164D+00
     58  0.217526D-02  0.410113D-01  0.117215D-01  0.139164D+00 -0.165669D+00
     59  0.000000D+00  0.000000D+00  0.000000D+00  0.000000D+00  0.000000D+00
     60 -0.325274D-02 -0.613257D-01 -0.693825D-02 -0.823746D-01  0.130053D+00
     61  0.473960D-01  0.208080D+00  0.484698D-01  0.265780D+00 -0.177982D+00
     62  0.771958D-01  0.201452D+00  0.941535D-01  0.414831D+00 -0.109126D+00
     63  0.000000D+00  0.000000D+00  0.000000D+00  0.000000D+00  0.000000D+00
     64 -0.115434D+00 -0.301238D+00 -0.557317D-01 -0.245548D+00  0.169776D+00
     65  0.848412D-04  0.224533D-01  0.243677D-05  0.146753D-02 -0.384480D-02
     66  0.224533D-01  0.130244D+00  0.894086D-02  0.666673D-01 -0.731668D-01
                6             7             8             9            10 
      6  0.100000D+01
      7  0.000000D+00  0.100000D+01
      8  0.000000D+00  0.000000D+00  0.100000D+01
      9  0.000000D+00  0.000000D+00  0.000000D+00  0.100000D+01
     10  0.528959D+00  0.000000D+00  0.000000D+00  0.000000D+00  0.100000D+01
     11  0.000000D+00  0.528959D+00  0.000000D+00  0.000000D+00  0.000000D+00
     12  0.000000D+00  0.693825D-02  0.484698D-01  0.941535D-01  0.000000D+00
     13  0.000000D+00  0.823746D-01  0.265780D+00  0.414831D+00  0.000000D+00
     14  0.000000D+00 -0.130053D+00 -0.177982D+00 -0.109126D+00  0.000000D+00
     15  0.540427D-01  0.000000D+00  0.000000D+00  0.000000D+00  0.177695D+00
     16  0.000000D+00 -0.229385D-01 -0.105352D+00 -0.169776D+00  0.000000D+00
     17  0.000000D+00  0.105352D+00  0.507954D+00  0.508772D+00  0.000000D+00
     18  0.000000D+00 -0.169776D+00 -0.508772D+00 -0.163846D-02  0.000000D+00
     19  0.177695D+00  0.000000D+00  0.000000D+00  0.000000D+00  0.507954D+00
     20  0.000000D+00  0.772007D-01 -0.301154D+00 -0.301640D+00  0.000000D+00
     21  0.000000D+00  0.338153D-03  0.471156D-01  0.137669D+00  0.000000D+00
     22  0.000000D+00  0.643506D-02  0.207348D+00  0.360130D+00  0.000000D+00
     23  0.000000D+00  0.000000D+00  0.281855D-02  0.547364D-02  0.000000D+00
     24  0.000000D+00  0.814962D-03  0.267206D-01  0.420815D-01  0.000000D+00
     25  0.000000D+00 -0.114918D-02 -0.168655D-01 -0.102567D-01  0.000000D+00
     26  0.160772D-03  0.000000D+00  0.000000D+00  0.000000D+00  0.168384D-01
     27  0.000000D+00 -0.191888D-02 -0.305212D-01 -0.490335D-01  0.000000D+00
     28  0.000000D+00  0.305212D-01  0.117142D+00  0.117331D+00  0.000000D+00
     29  0.000000D+00 -0.490335D-01 -0.117331D+00 -0.377853D-03  0.000000D+00
     30  0.168384D-01  0.000000D+00  0.000000D+00  0.000000D+00  0.117142D+00
     31  0.000000D+00 -0.718968D-01 -0.212331D+00 -0.212673D+00  0.000000D+00
     32  0.000000D+00  0.000000D+00  0.797545D-03  0.232266D-02  0.000000D+00
     33  0.000000D+00  0.201420D-02  0.182719D-01  0.317353D-01  0.000000D+00
     34  0.000000D+00  0.000000D+00  0.660015D-03  0.000000D+00  0.000000D+00
     35  0.000000D+00  0.568823D-04  0.821704D-02  0.000000D+00  0.000000D+00
     36  0.000000D+00  0.000000D+00  0.000000D+00  0.507005D-02  0.000000D+00
     37  0.844132D-05  0.000000D+00  0.000000D+00  0.000000D+00  0.507005D-02
     38  0.000000D+00 -0.183743D-03 -0.121959D-01  0.000000D+00  0.000000D+00
     39  0.000000D+00  0.121959D-01  0.554010D-01  0.000000D+00  0.000000D+00
     40  0.000000D+00  0.000000D+00  0.000000D+00  0.554010D-01  0.000000D+00
     41  0.507005D-02  0.000000D+00  0.000000D+00  0.000000D+00  0.554010D-01
     42  0.000000D+00 -0.419310D-01 -0.133266D+00  0.000000D+00  0.000000D+00
     43  0.000000D+00  0.000000D+00  0.911048D-04  0.000000D+00  0.000000D+00
     44  0.000000D+00  0.389677D-03  0.500687D-02  0.000000D+00  0.000000D+00
     45  0.000000D+00  0.000000D+00  0.281855D-02 -0.547364D-02  0.000000D+00
     46  0.000000D+00  0.814962D-03  0.267206D-01 -0.420815D-01  0.000000D+00
     47  0.000000D+00  0.114918D-02  0.168655D-01 -0.102567D-01  0.000000D+00
     48  0.160772D-03  0.000000D+00  0.000000D+00  0.000000D+00  0.168384D-01
     49  0.000000D+00 -0.191888D-02 -0.305212D-01  0.490335D-01  0.000000D+00
     50  0.000000D+00  0.305212D-01  0.117142D+00 -0.117331D+00  0.000000D+00
     51  0.000000D+00  0.490335D-01  0.117331D+00 -0.377853D-03  0.000000D+00
     52  0.168384D-01  0.000000D+00  0.000000D+00  0.000000D+00  0.117142D+00
     53  0.000000D+00 -0.718968D-01 -0.212331D+00  0.212673D+00  0.000000D+00
     54  0.000000D+00  0.000000D+00  0.797545D-03 -0.232266D-02  0.000000D+00
     55  0.000000D+00  0.201420D-02  0.182719D-01 -0.317353D-01  0.000000D+00
     56  0.000000D+00  0.693825D-02  0.484698D-01 -0.941535D-01  0.000000D+00
     57  0.000000D+00  0.823746D-01  0.265780D+00 -0.414831D+00  0.000000D+00
     58  0.000000D+00  0.130053D+00  0.177982D+00 -0.109126D+00  0.000000D+00
     59  0.540427D-01  0.000000D+00  0.000000D+00  0.000000D+00  0.177695D+00
     60  0.000000D+00 -0.229385D-01 -0.105352D+00  0.169776D+00  0.000000D+00
     61  0.000000D+00  0.105352D+00  0.507954D+00 -0.508772D+00  0.000000D+00
     62  0.000000D+00  0.169776D+00  0.508772D+00 -0.163846D-02  0.000000D+00
     63  0.177695D+00  0.000000D+00  0.000000D+00  0.000000D+00  0.507954D+00
     64  0.000000D+00  0.772007D-01 -0.301154D+00  0.301640D+00  0.000000D+00
     65  0.000000D+00  0.338152D-03  0.471156D-01 -0.137669D+00  0.000000D+00
     66  0.000000D+00  0.643506D-02  0.207348D+00 -0.360130D+00  0.000000D+00
               11            12            13            14            15 
     11  0.100000D+01
     12  0.557317D-01  0.100000D+01
     13  0.245548D+00  0.191447D+00  0.100000D+01
     14 -0.169776D+00  0.000000D+00  0.000000D+00  0.100000D+01
     15  0.000000D+00  0.000000D+00  0.000000D+00  0.000000D+00  0.100000D+01
     16  0.772007D-01  0.000000D+00  0.000000D+00  0.000000D+00  0.000000D+00
     17  0.301154D+00  0.180314D+00  0.761357D+00  0.000000D+00  0.000000D+00
     18 -0.301640D+00  0.000000D+00  0.000000D+00  0.528959D+00  0.000000D+00
     19  0.000000D+00  0.000000D+00  0.000000D+00  0.000000D+00  0.528959D+00
     20  0.329406D+00  0.000000D+00  0.000000D+00  0.000000D+00  0.000000D+00
     21  0.121080D-01  0.196122D-01  0.198209D+00  0.261310D+00  0.000000D+00
     22  0.316737D-01  0.815198D-01  0.404098D+00  0.206384D+00  0.000000D+00
     23  0.990554D-02  0.000000D+00  0.295076D-02  0.000000D+00  0.000000D+00
     24  0.761542D-01  0.295076D-02  0.741705D-01  0.000000D+00  0.000000D+00
     25 -0.490335D-01  0.000000D+00  0.000000D+00  0.413021D-01  0.000000D+00
     26  0.000000D+00  0.000000D+00  0.000000D+00  0.000000D+00  0.413021D-01
     27 -0.718968D-01 -0.896730D-02 -0.131274D+00  0.000000D+00  0.000000D+00
     28  0.212331D+00  0.426054D-01  0.239612D+00  0.000000D+00  0.000000D+00
     29 -0.212673D+00  0.000000D+00  0.000000D+00  0.159667D+00  0.000000D+00
     30  0.000000D+00  0.000000D+00  0.000000D+00  0.000000D+00  0.159667D+00
     31 -0.267729D+00 -0.100783D+00 -0.455665D+00  0.000000D+00  0.000000D+00
     32  0.290505D-02  0.158785D-05  0.115874D-02  0.134268D-02  0.000000D+00
     33  0.396928D-01  0.804446D-02  0.611463D-01  0.296417D-01  0.000000D+00
     34  0.307786D-02  0.000000D+00  0.000000D+00  0.000000D+00  0.000000D+00
     35  0.311737D-01  0.000000D+00  0.319960D-03 -0.450334D-03  0.000000D+00
     36  0.000000D+00  0.000000D+00  0.450334D-03 -0.474244D-03  0.000000D+00
     37  0.000000D+00  0.000000D+00  0.000000D+00  0.000000D+00  0.160772D-03
     38 -0.419310D-01  0.000000D+00 -0.814962D-03  0.114918D-02  0.000000D+00
     39  0.133266D+00  0.281855D-02  0.267206D-01 -0.168655D-01  0.000000D+00
     40  0.000000D+00  0.547364D-02  0.420815D-01 -0.102567D-01  0.000000D+00
     41  0.000000D+00  0.000000D+00  0.000000D+00  0.000000D+00  0.168384D-01
     42 -0.265167D+00 -0.990554D-02 -0.761542D-01  0.490335D-01  0.000000D+00
     43  0.488320D-03  0.000000D+00  0.000000D+00  0.000000D+00  0.000000D+00
     44  0.160206D-01  0.842849D-04  0.143980D-02 -0.827037D-03  0.000000D+00
     45  0.990554D-02  0.000000D+00  0.000000D+00  0.000000D+00  0.000000D+00
     46  0.761542D-01  0.000000D+00  0.295377D-04 -0.830903D-04  0.000000D+00
     47  0.490335D-01  0.000000D+00  0.830903D-04 -0.219019D-03  0.000000D+00
     48  0.000000D+00  0.000000D+00  0.000000D+00  0.000000D+00  0.148085D-04
     49 -0.718968D-01  0.000000D+00 -0.505920D-04  0.142373D-03  0.000000D+00
     50  0.212331D+00  0.870608D-03  0.102928D-01 -0.127686D-01  0.000000D+00
     51  0.212673D+00  0.338110D-02  0.325017D-01 -0.346136D-01  0.000000D+00
     52  0.000000D+00  0.000000D+00  0.000000D+00  0.000000D+00  0.637402D-02
     53 -0.267729D+00 -0.205868D-02 -0.197896D-01  0.249565D-01  0.000000D+00
     54  0.290505D-02  0.000000D+00  0.000000D+00  0.000000D+00  0.000000D+00
     55  0.396928D-01  0.116237D-04  0.280042D-03 -0.442392D-03  0.000000D+00
     56  0.557317D-01  0.000000D+00  0.000000D+00 -0.224238D-05  0.000000D+00
     57  0.245548D+00  0.000000D+00  0.550075D-03 -0.154900D-02  0.000000D+00
     58  0.169776D+00  0.224238D-05  0.154900D-02 -0.409682D-02  0.000000D+00
     59  0.000000D+00  0.000000D+00  0.000000D+00  0.000000D+00  0.276737D-03
     60  0.772007D-01  0.000000D+00  0.000000D+00  0.000000D+00  0.000000D+00
     61  0.301154D+00  0.368266D-02  0.331890D-01 -0.420837D-01  0.000000D+00
     62  0.301640D+00  0.143038D-01  0.104469D+00 -0.114243D+00  0.000000D+00
     63  0.000000D+00  0.000000D+00  0.000000D+00  0.000000D+00  0.210080D-01
     64  0.329406D+00  0.000000D+00  0.000000D+00  0.000000D+00  0.000000D+00
     65  0.121080D-01  0.000000D+00  0.000000D+00  0.000000D+00  0.000000D+00
     66  0.316737D-01  0.117652D-03  0.189604D-02 -0.305260D-02  0.000000D+00
               16            17            18            19            20 
     16  0.100000D+01
     17  0.000000D+00  0.100000D+01
     18  0.000000D+00  0.000000D+00  0.100000D+01
     19  0.000000D+00  0.000000D+00  0.000000D+00  0.100000D+01
     20  0.528959D+00  0.000000D+00  0.000000D+00  0.000000D+00  0.100000D+01
     21 -0.142880D+00  0.341270D+00  0.442535D+00  0.000000D+00 -0.241971D+00
     22 -0.112847D+00  0.671741D+00  0.516365D+00  0.000000D+00 -0.282340D+00
     23  0.896730D-02  0.426054D-01  0.000000D+00  0.000000D+00  0.100783D+00
     24  0.131274D+00  0.239612D+00  0.000000D+00  0.000000D+00  0.455665D+00
     25  0.000000D+00  0.000000D+00  0.159667D+00  0.000000D+00  0.000000D+00
     26  0.000000D+00  0.000000D+00  0.000000D+00  0.159667D+00  0.000000D+00
     27 -0.206608D+00 -0.194750D+00  0.000000D+00  0.000000D+00 -0.222454D+00
     28  0.194750D+00  0.475276D+00  0.000000D+00  0.000000D+00  0.579704D+00
     29  0.000000D+00  0.000000D+00  0.475276D+00  0.000000D+00  0.000000D+00
     30  0.000000D+00  0.000000D+00  0.000000D+00  0.475276D+00  0.000000D+00
     31 -0.222454D+00 -0.579704D+00  0.000000D+00  0.000000D+00 -0.231802D+00
     32  0.279346D-02  0.428659D-01  0.554281D-01  0.000000D+00  0.115318D+00
     33  0.616696D-01  0.196018D+00  0.150678D+00  0.000000D+00  0.313487D+00
     34  0.000000D+00  0.281855D-02 -0.547364D-02  0.000000D+00  0.990554D-02
     35  0.814962D-03  0.267206D-01 -0.420815D-01  0.000000D+00  0.761542D-01
     36  0.114918D-02  0.168655D-01 -0.102567D-01  0.000000D+00  0.490335D-01
     37  0.000000D+00  0.000000D+00  0.000000D+00  0.168384D-01  0.000000D+00
     38 -0.191888D-02 -0.305212D-01  0.490335D-01  0.000000D+00 -0.718968D-01
     39  0.305212D-01  0.117142D+00 -0.117331D+00  0.000000D+00  0.212331D+00
     40  0.490335D-01  0.117331D+00 -0.377853D-03  0.000000D+00  0.212673D+00
     41  0.000000D+00  0.000000D+00  0.000000D+00  0.117142D+00  0.000000D+00
     42 -0.718968D-01 -0.212331D+00  0.212673D+00  0.000000D+00 -0.267729D+00
     43  0.000000D+00  0.730666D-03 -0.118607D-02  0.000000D+00  0.321791D-02
     44  0.224383D-02  0.173420D-01 -0.167895D-01  0.000000D+00  0.455515D-01
     45  0.000000D+00  0.870608D-03 -0.338110D-02  0.000000D+00  0.205868D-02
     46  0.505920D-04  0.102928D-01 -0.325017D-01  0.000000D+00  0.197896D-01
     47  0.142373D-03  0.127686D-01 -0.346136D-01  0.000000D+00  0.249565D-01
     48  0.000000D+00  0.000000D+00  0.000000D+00  0.637402D-02  0.000000D+00
     49 -0.718794D-04 -0.777453D-02  0.249565D-01  0.000000D+00 -0.882148D-02
     50  0.777453D-02  0.639080D-01 -0.128022D+00  0.000000D+00  0.779499D-01
     51  0.249565D-01  0.128022D+00 -0.192548D+00  0.000000D+00  0.156151D+00
     52  0.000000D+00  0.000000D+00  0.000000D+00  0.639080D-01  0.000000D+00
     53 -0.882148D-02 -0.779499D-01  0.156151D+00  0.000000D+00 -0.311692D-01
     54  0.000000D+00  0.124854D-03 -0.565806D-03  0.000000D+00  0.334523D-03
     55  0.261557D-03  0.604314D-02 -0.163466D-01  0.000000D+00  0.966466D-02
     56  0.000000D+00  0.368266D-02 -0.143038D-01  0.000000D+00  0.000000D+00
     57  0.000000D+00  0.331890D-01 -0.104469D+00  0.000000D+00  0.000000D+00
     58  0.000000D+00  0.420837D-01 -0.114243D+00  0.000000D+00  0.000000D+00
     59  0.000000D+00  0.000000D+00  0.000000D+00  0.210080D-01  0.000000D+00
     60  0.276737D-03  0.000000D+00  0.000000D+00  0.000000D+00  0.210080D-01
     61  0.000000D+00  0.134465D+00 -0.269363D+00  0.000000D+00  0.000000D+00
     62  0.000000D+00  0.269363D+00 -0.405130D+00  0.000000D+00  0.000000D+00
     63  0.000000D+00  0.000000D+00  0.000000D+00  0.134465D+00  0.000000D+00
     64  0.210080D-01  0.000000D+00  0.000000D+00  0.000000D+00  0.134465D+00
     65  0.000000D+00  0.983905D-03 -0.446313D-02  0.000000D+00 -0.693498D-03
     66 -0.474324D-03  0.207095D-01 -0.560188D-01  0.000000D+00 -0.870442D-02
               21            22            23            24            25 
     21  0.100000D+01
     22  0.645898D+00  0.100000D+01
     23  0.158785D-05  0.804446D-02  0.100000D+01
     24  0.115874D-02  0.611463D-01  0.191447D+00  0.100000D+01
     25  0.134268D-02  0.296417D-01  0.000000D+00  0.000000D+00  0.100000D+01
     26  0.000000D+00  0.000000D+00  0.000000D+00  0.000000D+00  0.000000D+00
     27 -0.279346D-02 -0.616696D-01  0.000000D+00  0.000000D+00  0.000000D+00
     28  0.428659D-01  0.196018D+00  0.180314D+00  0.761357D+00  0.000000D+00
     29  0.554281D-01  0.150678D+00  0.000000D+00  0.000000D+00  0.528959D+00
     30  0.000000D+00  0.000000D+00  0.000000D+00  0.000000D+00  0.000000D+00
     31 -0.115318D+00 -0.313487D+00  0.000000D+00  0.000000D+00  0.000000D+00
     32  0.835907D-04  0.223318D-01  0.196122D-01  0.198209D+00  0.261310D+00
     33  0.223318D-01  0.129815D+00  0.815198D-01  0.404098D+00  0.206384D+00
     34  0.000000D+00  0.929788D-04  0.000000D+00  0.469460D-02 -0.117215D-01
     35  0.000000D+00  0.156132D-02  0.469460D-02  0.951304D-01 -0.139164D+00
     36  0.000000D+00  0.161040D-02  0.117215D-01  0.139164D+00 -0.165669D+00
     37  0.000000D+00  0.000000D+00  0.000000D+00  0.000000D+00  0.000000D+00
     38  0.000000D+00 -0.201420D-02 -0.693825D-02 -0.823746D-01  0.130053D+00
     39  0.797545D-03  0.182719D-01  0.484698D-01  0.265780D+00 -0.177982D+00
     40  0.232266D-02  0.317353D-01  0.941535D-01  0.414831D+00 -0.109126D+00
     41  0.000000D+00  0.000000D+00  0.000000D+00  0.000000D+00  0.000000D+00
     42 -0.290505D-02 -0.396928D-01 -0.557317D-01 -0.245548D+00  0.169776D+00
     43  0.000000D+00  0.260127D-04  0.250316D-05  0.148945D-02 -0.217526D-02
     44  0.260127D-04  0.211814D-02  0.900033D-02  0.670299D-01 -0.410113D-01
     45  0.000000D+00  0.116238D-04  0.000000D+00  0.000000D+00 -0.224238D-05
     46  0.000000D+00  0.280042D-03  0.000000D+00  0.550075D-03 -0.154900D-02
     47  0.000000D+00  0.442392D-03  0.224238D-05  0.154900D-02 -0.409682D-02
     48  0.000000D+00  0.000000D+00  0.000000D+00  0.000000D+00  0.000000D+00
     49  0.000000D+00 -0.261557D-03  0.000000D+00  0.000000D+00  0.000000D+00
     50  0.124854D-03  0.604314D-02  0.368266D-02  0.331890D-01 -0.420837D-01
     51  0.565806D-03  0.163466D-01  0.143038D-01  0.104469D+00 -0.114243D+00
     52  0.000000D+00  0.000000D+00  0.000000D+00  0.000000D+00  0.000000D+00
     53 -0.334523D-03 -0.966466D-02  0.000000D+00  0.000000D+00  0.000000D+00
     54  0.000000D+00  0.111148D-05  0.000000D+00  0.000000D+00  0.000000D+00
     55  0.111148D-05  0.309168D-03  0.117652D-03  0.189604D-02 -0.305260D-02
     56  0.000000D+00  0.117652D-03  0.000000D+00  0.000000D+00  0.000000D+00
     57  0.000000D+00  0.189604D-02  0.000000D+00  0.295377D-04 -0.830903D-04
     58  0.000000D+00  0.305260D-02  0.000000D+00  0.830903D-04 -0.219019D-03
     59  0.000000D+00  0.000000D+00  0.000000D+00  0.000000D+00  0.000000D+00
     60  0.000000D+00 -0.474325D-03  0.000000D+00  0.505920D-04 -0.142373D-03
     61  0.983905D-03  0.207095D-01  0.870608D-03  0.102928D-01 -0.127686D-01
     62  0.446313D-02  0.560188D-01  0.338110D-02  0.325017D-01 -0.346136D-01
     63  0.000000D+00  0.000000D+00  0.000000D+00  0.000000D+00  0.000000D+00
     64 -0.693498D-03 -0.870442D-02  0.205868D-02  0.197896D-01 -0.249565D-01
     65  0.000000D+00  0.315236D-04  0.000000D+00  0.000000D+00  0.000000D+00
     66  0.315236D-04  0.238161D-02  0.116237D-04  0.280042D-03 -0.442392D-03
               26            27            28            29            30 
     26  0.100000D+01
     27  0.000000D+00  0.100000D+01
     28  0.000000D+00  0.000000D+00  0.100000D+01
     29  0.000000D+00  0.000000D+00  0.000000D+00  0.100000D+01
     30  0.528959D+00  0.000000D+00  0.000000D+00  0.000000D+00  0.100000D+01
     31  0.000000D+00  0.528959D+00  0.000000D+00  0.000000D+00  0.000000D+00
     32  0.000000D+00  0.142880D+00  0.341270D+00  0.442535D+00  0.000000D+00
     33  0.000000D+00  0.112847D+00  0.671741D+00  0.516365D+00  0.000000D+00
     34  0.000000D+00  0.693825D-02  0.484698D-01 -0.941535D-01  0.000000D+00
     35  0.000000D+00  0.823746D-01  0.265780D+00 -0.414831D+00  0.000000D+00
     36  0.000000D+00  0.130053D+00  0.177982D+00 -0.109126D+00  0.000000D+00
     37  0.540427D-01  0.000000D+00  0.000000D+00  0.000000D+00  0.177695D+00
     38  0.000000D+00 -0.229385D-01 -0.105352D+00  0.169776D+00  0.000000D+00
     39  0.000000D+00  0.105352D+00  0.507954D+00 -0.508772D+00  0.000000D+00
     40  0.000000D+00  0.169776D+00  0.508772D+00 -0.163846D-02  0.000000D+00
     41  0.177695D+00  0.000000D+00  0.000000D+00  0.000000D+00  0.507954D+00
     42  0.000000D+00  0.772007D-01 -0.301154D+00  0.301640D+00  0.000000D+00
     43  0.000000D+00  0.325274D-02  0.473960D-01 -0.771958D-01  0.000000D+00
     44  0.000000D+00  0.613257D-01  0.208080D+00 -0.201452D+00  0.000000D+00
     45  0.000000D+00  0.000000D+00  0.368266D-02 -0.143038D-01  0.000000D+00
     46  0.000000D+00  0.000000D+00  0.331890D-01 -0.104469D+00  0.000000D+00
     47  0.000000D+00  0.000000D+00  0.420837D-01 -0.114243D+00  0.000000D+00
     48  0.276737D-03  0.000000D+00  0.000000D+00  0.000000D+00  0.210080D-01
     49  0.000000D+00  0.276737D-03  0.000000D+00  0.000000D+00  0.000000D+00
     50  0.000000D+00  0.000000D+00  0.134465D+00 -0.269363D+00  0.000000D+00
     51  0.000000D+00  0.000000D+00  0.269363D+00 -0.405130D+00  0.000000D+00
     52  0.210080D-01  0.000000D+00  0.000000D+00  0.000000D+00  0.134465D+00
     53  0.000000D+00  0.210080D-01  0.000000D+00  0.000000D+00  0.000000D+00
     54  0.000000D+00  0.000000D+00  0.983905D-03 -0.446313D-02  0.000000D+00
     55  0.000000D+00  0.474324D-03  0.207095D-01 -0.560188D-01  0.000000D+00
     56  0.000000D+00  0.000000D+00  0.870608D-03 -0.338110D-02  0.000000D+00
     57  0.000000D+00 -0.505920D-04  0.102928D-01 -0.325017D-01  0.000000D+00
     58  0.000000D+00 -0.142373D-03  0.127686D-01 -0.346136D-01  0.000000D+00
     59  0.148085D-04  0.000000D+00  0.000000D+00  0.000000D+00  0.637402D-02
     60  0.000000D+00 -0.718794D-04  0.777453D-02 -0.249565D-01  0.000000D+00
     61  0.000000D+00 -0.777453D-02  0.639080D-01 -0.128022D+00  0.000000D+00
     62  0.000000D+00 -0.249565D-01  0.128022D+00 -0.192548D+00  0.000000D+00
     63  0.637402D-02  0.000000D+00  0.000000D+00  0.000000D+00  0.639080D-01
     64  0.000000D+00 -0.882148D-02  0.779499D-01 -0.156151D+00  0.000000D+00
     65  0.000000D+00  0.000000D+00  0.124854D-03 -0.565806D-03  0.000000D+00
     66  0.000000D+00 -0.261557D-03  0.604314D-02 -0.163466D-01  0.000000D+00
               31            32            33            34            35 
     31  0.100000D+01
     32  0.241971D+00  0.100000D+01
     33  0.282340D+00  0.645898D+00  0.100000D+01
     34  0.557317D-01  0.243677D-05  0.894086D-02  0.100000D+01
     35  0.245548D+00  0.146754D-02  0.666673D-01  0.191447D+00  0.100000D+01
     36  0.169776D+00  0.384480D-02  0.731668D-01  0.000000D+00  0.000000D+00
     37  0.000000D+00  0.000000D+00  0.000000D+00  0.000000D+00  0.000000D+00
     38  0.772007D-01 -0.338153D-03 -0.643506D-02  0.000000D+00  0.000000D+00
     39  0.301154D+00  0.471156D-01  0.207348D+00  0.180314D+00  0.761357D+00
     40  0.301640D+00  0.137669D+00  0.360130D+00  0.000000D+00  0.000000D+00
     41  0.000000D+00  0.000000D+00  0.000000D+00  0.000000D+00  0.000000D+00
     42  0.329406D+00 -0.121080D-01 -0.316737D-01  0.000000D+00  0.000000D+00
     43  0.115434D+00  0.848412D-04  0.224533D-01  0.198141D-01  0.199290D+00
     44  0.301238D+00  0.224533D-01  0.130244D+00  0.817243D-01  0.404921D+00
     45  0.000000D+00  0.000000D+00  0.117652D-03  0.000000D+00  0.469460D-02
     46  0.000000D+00  0.000000D+00  0.189604D-02  0.469460D-02  0.951304D-01
     47  0.000000D+00  0.000000D+00  0.305260D-02  0.117215D-01  0.139164D+00
     48  0.000000D+00  0.000000D+00  0.000000D+00  0.000000D+00  0.000000D+00
     49  0.210080D-01  0.000000D+00  0.474325D-03  0.693825D-02  0.823746D-01
     50  0.000000D+00  0.983905D-03  0.207095D-01  0.484698D-01  0.265780D+00
     51  0.000000D+00  0.446313D-02  0.560188D-01  0.941535D-01  0.414831D+00
     52  0.000000D+00  0.000000D+00  0.000000D+00  0.000000D+00  0.000000D+00
     53  0.134465D+00  0.693498D-03  0.870442D-02  0.557317D-01  0.245548D+00
     54  0.693498D-03  0.000000D+00  0.315236D-04  0.243677D-05  0.146753D-02
     55  0.870442D-02  0.315236D-04  0.238161D-02  0.894086D-02  0.666673D-01
     56 -0.205868D-02  0.000000D+00  0.116238D-04  0.000000D+00  0.000000D+00
     57 -0.197896D-01  0.000000D+00  0.280042D-03  0.000000D+00  0.319960D-03
     58 -0.249565D-01  0.000000D+00  0.442392D-03  0.000000D+00  0.450334D-03
     59  0.000000D+00  0.000000D+00  0.000000D+00  0.000000D+00  0.000000D+00
     60 -0.882148D-02  0.000000D+00  0.261557D-03  0.000000D+00  0.814962D-03
     61 -0.779499D-01  0.124854D-03  0.604314D-02  0.281855D-02  0.267206D-01
     62 -0.156151D+00  0.565806D-03  0.163466D-01  0.547364D-02  0.420815D-01
     63  0.000000D+00  0.000000D+00  0.000000D+00  0.000000D+00  0.000000D+00
     64 -0.311692D-01  0.334523D-03  0.966466D-02  0.990554D-02  0.761542D-01
     65 -0.334523D-03  0.000000D+00  0.111148D-05  0.000000D+00  0.000000D+00
     66 -0.966466D-02  0.111148D-05  0.309168D-03  0.929788D-04  0.156132D-02
               36            37            38            39            40 
     36  0.100000D+01
     37  0.000000D+00  0.100000D+01
     38  0.000000D+00  0.000000D+00  0.100000D+01
     39  0.000000D+00  0.000000D+00  0.000000D+00  0.100000D+01
     40  0.528959D+00  0.000000D+00  0.000000D+00  0.000000D+00  0.100000D+01
     41  0.000000D+00  0.528959D+00  0.000000D+00  0.000000D+00  0.000000D+00
     42  0.000000D+00  0.000000D+00  0.528959D+00  0.000000D+00  0.000000D+00
     43  0.000000D+00  0.000000D+00  0.299094D+00  0.342038D+00  0.000000D+00
     44  0.000000D+00  0.000000D+00  0.235320D+00  0.672636D+00  0.000000D+00
     45 -0.117215D-01  0.000000D+00 -0.693825D-02  0.484698D-01 -0.941535D-01
     46 -0.139164D+00  0.000000D+00 -0.823746D-01  0.265780D+00 -0.414831D+00
     47 -0.165669D+00  0.000000D+00 -0.130053D+00  0.177982D+00 -0.109126D+00
     48  0.000000D+00  0.540427D-01  0.000000D+00  0.000000D+00  0.000000D+00
     49 -0.130053D+00  0.000000D+00 -0.229385D-01  0.105352D+00 -0.169776D+00
     50 -0.177982D+00  0.000000D+00 -0.105352D+00  0.507954D+00 -0.508772D+00
     51 -0.109126D+00  0.000000D+00 -0.169776D+00  0.508772D+00 -0.163846D-02
     52  0.000000D+00  0.177695D+00  0.000000D+00  0.000000D+00  0.000000D+00
     53 -0.169776D+00  0.000000D+00  0.772007D-01  0.301154D+00 -0.301640D+00
     54 -0.384480D-02  0.000000D+00 -0.338152D-03  0.471156D-01 -0.137669D+00
     55 -0.731668D-01  0.000000D+00 -0.643506D-02  0.207348D+00 -0.360130D+00
     56  0.000000D+00  0.000000D+00  0.000000D+00  0.281855D-02 -0.547364D-02
     57 -0.450334D-03  0.000000D+00 -0.814962D-03  0.267206D-01 -0.420815D-01
     58 -0.474244D-03  0.000000D+00 -0.114918D-02  0.168655D-01 -0.102567D-01
     59  0.000000D+00  0.160772D-03  0.000000D+00  0.000000D+00  0.000000D+00
     60 -0.114918D-02  0.000000D+00 -0.191888D-02  0.305212D-01 -0.490335D-01
     61 -0.168655D-01  0.000000D+00 -0.305212D-01  0.117142D+00 -0.117331D+00
     62 -0.102567D-01  0.000000D+00 -0.490335D-01  0.117331D+00 -0.377853D-03
     63  0.000000D+00  0.168384D-01  0.000000D+00  0.000000D+00  0.000000D+00
     64 -0.490335D-01  0.000000D+00 -0.718968D-01  0.212331D+00 -0.212673D+00
     65  0.000000D+00  0.000000D+00  0.000000D+00  0.797545D-03 -0.232266D-02
     66 -0.161040D-02  0.000000D+00 -0.201420D-02  0.182719D-01 -0.317353D-01
               41            42            43            44            45 
     41  0.100000D+01
     42  0.000000D+00  0.100000D+01
     43  0.000000D+00  0.504656D+00  0.100000D+01
     44  0.000000D+00  0.588309D+00  0.645898D+00  0.100000D+01
     45  0.000000D+00 -0.557317D-01  0.250316D-05  0.900033D-02  0.100000D+01
     46  0.000000D+00 -0.245548D+00  0.148945D-02  0.670299D-01  0.191447D+00
     47  0.000000D+00 -0.169776D+00  0.217526D-02  0.410113D-01  0.000000D+00
     48  0.177695D+00  0.000000D+00  0.000000D+00  0.000000D+00  0.000000D+00
     49  0.000000D+00  0.772007D-01  0.325274D-02  0.613257D-01  0.000000D+00
     50  0.000000D+00 -0.301154D+00  0.473960D-01  0.208080D+00  0.180314D+00
     51  0.000000D+00 -0.301640D+00  0.771958D-01  0.201452D+00  0.000000D+00
     52  0.507954D+00  0.000000D+00  0.000000D+00  0.000000D+00  0.000000D+00
     53  0.000000D+00  0.329406D+00  0.115434D+00  0.301238D+00  0.000000D+00
     54  0.000000D+00 -0.121080D-01  0.848412D-04  0.224533D-01  0.196122D-01
     55  0.000000D+00 -0.316737D-01  0.224533D-01  0.130244D+00  0.815198D-01
     56  0.000000D+00 -0.990554D-02  0.000000D+00  0.842849D-04  0.000000D+00
     57  0.000000D+00 -0.761542D-01  0.000000D+00  0.143980D-02  0.295076D-02
     58  0.000000D+00 -0.490335D-01  0.000000D+00  0.827037D-03  0.000000D+00
     59  0.168384D-01  0.000000D+00  0.000000D+00  0.000000D+00  0.000000D+00
     60  0.000000D+00 -0.718968D-01  0.000000D+00  0.224383D-02  0.896730D-02
     61  0.000000D+00 -0.212331D+00  0.730666D-03  0.173420D-01  0.426054D-01
     62  0.000000D+00 -0.212673D+00  0.118607D-02  0.167895D-01  0.000000D+00
     63  0.117142D+00  0.000000D+00  0.000000D+00  0.000000D+00  0.000000D+00
     64  0.000000D+00 -0.267729D+00  0.321791D-02  0.455515D-01  0.100783D+00
     65  0.000000D+00 -0.290505D-02  0.000000D+00  0.260127D-04  0.158785D-05
     66  0.000000D+00 -0.396928D-01  0.260127D-04  0.211814D-02  0.804446D-02
               46            47            48            49            50 
     46  0.100000D+01
     47  0.000000D+00  0.100000D+01
     48  0.000000D+00  0.000000D+00  0.100000D+01
     49  0.000000D+00  0.000000D+00  0.000000D+00  0.100000D+01
     50  0.761357D+00  0.000000D+00  0.000000D+00  0.000000D+00  0.100000D+01
     51  0.000000D+00  0.528959D+00  0.000000D+00  0.000000D+00  0.000000D+00
     52  0.000000D+00  0.000000D+00  0.528959D+00  0.000000D+00  0.000000D+00
     53  0.000000D+00  0.000000D+00  0.000000D+00  0.528959D+00  0.000000D+00
     54  0.198209D+00 -0.261310D+00  0.000000D+00  0.142880D+00  0.341270D+00
     55  0.404098D+00 -0.206384D+00  0.000000D+00  0.112847D+00  0.671741D+00
     56  0.295076D-02  0.000000D+00  0.000000D+00 -0.896730D-02  0.426054D-01
     57  0.741705D-01  0.000000D+00  0.000000D+00 -0.131274D+00  0.239612D+00
     58  0.000000D+00  0.413021D-01  0.000000D+00  0.000000D+00  0.000000D+00
     59  0.000000D+00  0.000000D+00  0.413021D-01  0.000000D+00  0.000000D+00
     60  0.131274D+00  0.000000D+00  0.000000D+00 -0.206608D+00  0.194750D+00
     61  0.239612D+00  0.000000D+00  0.000000D+00 -0.194750D+00  0.475276D+00
     62  0.000000D+00  0.159667D+00  0.000000D+00  0.000000D+00  0.000000D+00
     63  0.000000D+00  0.000000D+00  0.159667D+00  0.000000D+00  0.000000D+00
     64  0.455665D+00  0.000000D+00  0.000000D+00 -0.222454D+00  0.579704D+00
     65  0.115874D-02 -0.134268D-02  0.000000D+00 -0.279346D-02  0.428659D-01
     66  0.611463D-01 -0.296417D-01  0.000000D+00 -0.616696D-01  0.196018D+00
               51            52            53            54            55 
     51  0.100000D+01
     52  0.000000D+00  0.100000D+01
     53  0.000000D+00  0.000000D+00  0.100000D+01
     54 -0.442535D+00  0.000000D+00  0.241971D+00  0.100000D+01
     55 -0.516365D+00  0.000000D+00  0.282340D+00  0.645898D+00  0.100000D+01
     56  0.000000D+00  0.000000D+00 -0.100783D+00  0.158785D-05  0.804446D-02
     57  0.000000D+00  0.000000D+00 -0.455665D+00  0.115874D-02  0.611463D-01
     58  0.159667D+00  0.000000D+00  0.000000D+00 -0.134268D-02 -0.296417D-01
     59  0.000000D+00  0.159667D+00  0.000000D+00  0.000000D+00  0.000000D+00
     60  0.000000D+00  0.000000D+00 -0.222454D+00  0.279346D-02  0.616696D-01
     61  0.000000D+00  0.000000D+00 -0.579704D+00  0.428659D-01  0.196018D+00
     62  0.475276D+00  0.000000D+00  0.000000D+00 -0.554281D-01 -0.150678D+00
     63  0.000000D+00  0.475276D+00  0.000000D+00  0.000000D+00  0.000000D+00
     64  0.000000D+00  0.000000D+00 -0.231802D+00  0.115318D+00  0.313487D+00
     65 -0.554281D-01  0.000000D+00 -0.115318D+00  0.835907D-04  0.223318D-01
     66 -0.150678D+00  0.000000D+00 -0.313487D+00  0.223318D-01  0.129815D+00
               56            57            58            59            60 
     56  0.100000D+01
     57  0.191447D+00  0.100000D+01
     58  0.000000D+00  0.000000D+00  0.100000D+01
     59  0.000000D+00  0.000000D+00  0.000000D+00  0.100000D+01
     60  0.000000D+00  0.000000D+00  0.000000D+00  0.000000D+00  0.100000D+01
     61  0.180314D+00  0.761357D+00  0.000000D+00  0.000000D+00  0.000000D+00
     62  0.000000D+00  0.000000D+00  0.528959D+00  0.000000D+00  0.000000D+00
     63  0.000000D+00  0.000000D+00  0.000000D+00  0.528959D+00  0.000000D+00
     64  0.000000D+00  0.000000D+00  0.000000D+00  0.000000D+00  0.528959D+00
     65  0.196122D-01  0.198209D+00 -0.261310D+00  0.000000D+00 -0.142880D+00
     66  0.815198D-01  0.404098D+00 -0.206384D+00  0.000000D+00 -0.112847D+00
               61            62            63            64            65 
     61  0.100000D+01
     62  0.000000D+00  0.100000D+01
     63  0.000000D+00  0.000000D+00  0.100000D+01
     64  0.000000D+00  0.000000D+00  0.000000D+00  0.100000D+01
     65  0.341270D+00 -0.442535D+00  0.000000D+00 -0.241971D+00  0.100000D+01
     66  0.671741D+00 -0.516365D+00  0.000000D+00 -0.282340D+00  0.645898D+00
               66 
     66  0.100000D+01
 *** Kinetic Energy *** 
                1             2             3             4             5 
      1  0.154940D+01
      2  0.293151D+00  0.274787D+00
      3 -0.446544D-01  0.219892D-01  0.165790D+02
      4 -0.120427D-01  0.105202D+00 -0.143503D+01  0.135737D+01
      5  0.000000D+00  0.000000D+00  0.000000D+00  0.000000D+00  0.258667D+01
      6  0.000000D+00  0.000000D+00  0.000000D+00  0.000000D+00  0.000000D+00
      7 -0.169910D+00 -0.131763D+00  0.000000D+00  0.000000D+00  0.000000D+00
      8  0.908128D-01  0.140618D+00  0.102750D+00  0.346412D+00  0.000000D+00
      9  0.000000D+00  0.000000D+00  0.000000D+00  0.000000D+00  0.417510D+00
     10  0.000000D+00  0.000000D+00  0.000000D+00  0.000000D+00  0.000000D+00
     11 -0.295429D+00 -0.234364D+00  0.000000D+00  0.000000D+00  0.000000D+00
     12 -0.378118D-04 -0.464538D-02  0.000000D+00 -0.207825D-01 -0.359998D-01
     13 -0.603572D-02 -0.176723D-01 -0.207825D-01 -0.636650D-01 -0.492677D-02
     14  0.716597D-02 -0.340753D-03  0.359998D-01  0.492677D-02 -0.124738D+00
     15  0.000000D+00  0.000000D+00  0.000000D+00  0.000000D+00  0.000000D+00
     16  0.107155D-01 -0.509540D-03  0.213091D-01  0.291627D-02 -0.663840D-01
     17 -0.172478D-01 -0.271782D-02  0.342811D-02  0.364901D-01  0.789926D-01
     18  0.359849D-02 -0.355061D-01 -0.424222D-01 -0.183475D+00 -0.138979D+00
     19  0.000000D+00  0.000000D+00  0.000000D+00  0.000000D+00  0.000000D+00
     20  0.538095D-02 -0.530935D-01 -0.251107D-01 -0.108603D+00 -0.128948D+00
     21 -0.537153D-03 -0.125579D-01 -0.369022D-04 -0.596439D-02 -0.127106D-01
     22 -0.125579D-01 -0.128447D-01 -0.463577D-02 -0.176830D-01  0.487193D-03
     23  0.000000D+00 -0.183510D-03  0.000000D+00 -0.315593D-05 -0.724540D-05
     24  0.000000D+00 -0.202135D-02 -0.315593D-05 -0.170425D-02 -0.205597D-02
     25  0.000000D+00  0.948936D-03  0.724540D-05  0.205597D-02  0.168933D-02
     26  0.000000D+00  0.000000D+00  0.000000D+00  0.000000D+00  0.000000D+00
     27  0.196328D-05  0.257455D-02  0.131119D-04  0.372066D-02  0.439127D-02
     28 -0.122933D-02 -0.838422D-02 -0.284498D-02 -0.153197D-01 -0.499694D-02
     29  0.162155D-02  0.493867D-02  0.344749D-02  0.109769D-01 -0.543680D-02
     30  0.000000D+00  0.000000D+00  0.000000D+00  0.000000D+00  0.000000D+00
     31  0.439942D-02  0.133991D-01  0.623886D-02  0.198647D-01 -0.810566D-03
     32  0.000000D+00 -0.671232D-04  0.000000D+00  0.000000D+00 -0.159290D-05
     33 -0.671232D-04 -0.180712D-02 -0.199194D-03 -0.215419D-02 -0.180880D-02
     34  0.000000D+00 -0.245443D-04  0.000000D+00  0.000000D+00  0.000000D+00
     35  0.000000D+00 -0.414008D-03  0.000000D+00 -0.128175D-03  0.000000D+00
     36  0.000000D+00  0.000000D+00  0.000000D+00  0.000000D+00 -0.577936D-04
     37  0.000000D+00  0.000000D+00  0.000000D+00  0.000000D+00  0.000000D+00
     38  0.000000D+00  0.671071D-03  0.000000D+00  0.389214D-03  0.000000D+00
     39 -0.213072D-03 -0.359819D-02 -0.102979D-02 -0.774811D-02  0.000000D+00
     40  0.000000D+00  0.000000D+00  0.000000D+00  0.000000D+00 -0.340319D-02
     41  0.000000D+00  0.000000D+00  0.000000D+00  0.000000D+00  0.000000D+00
     42  0.988153D-03  0.848034D-02  0.363452D-02  0.195994D-01  0.000000D+00
     43  0.000000D+00 -0.278073D-05  0.000000D+00  0.000000D+00  0.000000D+00
     44 -0.278073D-05 -0.307079D-03 -0.245443D-04 -0.414008D-03  0.000000D+00
     45  0.000000D+00 -0.183510D-03  0.000000D+00 -0.315593D-05  0.724540D-05
     46  0.000000D+00 -0.202135D-02 -0.315593D-05 -0.170425D-02  0.205597D-02
     47  0.000000D+00 -0.948936D-03 -0.724540D-05 -0.205597D-02  0.168933D-02
     48  0.000000D+00  0.000000D+00  0.000000D+00  0.000000D+00  0.000000D+00
     49  0.196328D-05  0.257455D-02  0.131119D-04  0.372066D-02 -0.439127D-02
     50 -0.122933D-02 -0.838422D-02 -0.284498D-02 -0.153197D-01  0.499694D-02
     51 -0.162155D-02 -0.493867D-02 -0.344749D-02 -0.109769D-01 -0.543680D-02
     52  0.000000D+00  0.000000D+00  0.000000D+00  0.000000D+00  0.000000D+00
     53  0.439942D-02  0.133991D-01  0.623886D-02  0.198647D-01  0.810566D-03
     54  0.000000D+00 -0.671232D-04  0.000000D+00  0.000000D+00  0.159290D-05
     55 -0.671232D-04 -0.180712D-02 -0.199194D-03 -0.215419D-02  0.180880D-02
     56 -0.378118D-04 -0.464538D-02  0.000000D+00 -0.207825D-01  0.359998D-01
     57 -0.603572D-02 -0.176723D-01 -0.207825D-01 -0.636650D-01  0.492677D-02
     58 -0.716597D-02  0.340754D-03 -0.359998D-01 -0.492677D-02 -0.124738D+00
     59  0.000000D+00  0.000000D+00  0.000000D+00  0.000000D+00  0.000000D+00
     60  0.107155D-01 -0.509542D-03  0.213091D-01  0.291627D-02  0.663840D-01
     61 -0.172478D-01 -0.271782D-02  0.342811D-02  0.364901D-01 -0.789926D-01
     62 -0.359849D-02  0.355061D-01  0.424222D-01  0.183475D+00 -0.138979D+00
     63  0.000000D+00  0.000000D+00  0.000000D+00  0.000000D+00  0.000000D+00
     64  0.538095D-02 -0.530935D-01 -0.251107D-01 -0.108603D+00  0.128948D+00
     65 -0.537153D-03 -0.125579D-01 -0.369022D-04 -0.596439D-02  0.127106D-01
     66 -0.125579D-01 -0.128447D-01 -0.463577D-02 -0.176830D-01 -0.487191D-03
                6             7             8             9            10 
      6  0.258667D+01
      7  0.000000D+00  0.258667D+01
      8  0.000000D+00  0.000000D+00  0.293786D+00
      9  0.000000D+00  0.000000D+00  0.000000D+00  0.489643D+00
     10  0.417510D+00  0.000000D+00  0.000000D+00  0.000000D+00  0.489643D+00
     11  0.000000D+00  0.417510D+00  0.000000D+00  0.000000D+00  0.000000D+00
     12  0.000000D+00 -0.213091D-01  0.342811D-02  0.424222D-01  0.000000D+00
     13  0.000000D+00 -0.291627D-02  0.364901D-01  0.183475D+00  0.000000D+00
     14  0.000000D+00 -0.663840D-01 -0.789926D-01 -0.138979D+00  0.000000D+00
     15 -0.125886D-01  0.000000D+00  0.000000D+00  0.000000D+00  0.788655D-01
     16  0.000000D+00 -0.518829D-01 -0.467576D-01 -0.128948D+00  0.000000D+00
     17  0.000000D+00  0.467576D-01  0.818410D-01  0.181620D+00  0.000000D+00
     18  0.000000D+00 -0.128948D+00 -0.181620D+00 -0.100392D+00  0.000000D+00
     19  0.788655D-01  0.000000D+00  0.000000D+00  0.000000D+00  0.181327D+00
     20  0.000000D+00  0.253843D-02 -0.107505D+00 -0.166756D+00  0.000000D+00
     21  0.000000D+00 -0.111791D-02 -0.172344D-01 -0.667733D-02  0.000000D+00
     22  0.000000D+00  0.428490D-04 -0.284667D-02  0.632330D-01  0.000000D+00
     23  0.000000D+00 -0.131119D-04 -0.284498D-02 -0.344749D-02  0.000000D+00
     24  0.000000D+00 -0.372066D-02 -0.153197D-01 -0.109769D-01  0.000000D+00
     25  0.000000D+00  0.439127D-02  0.499694D-02 -0.543680D-02  0.000000D+00
     26 -0.737211D-03  0.000000D+00  0.000000D+00  0.000000D+00 -0.498890D-02
     27  0.000000D+00  0.720959D-02  0.904287D-02 -0.810566D-03  0.000000D+00
     28  0.000000D+00 -0.904287D-02 -0.147838D-01  0.817238D-02  0.000000D+00
     29  0.000000D+00 -0.810566D-03 -0.817238D-02 -0.230434D-01  0.000000D+00
     30 -0.498890D-02  0.000000D+00  0.000000D+00  0.000000D+00  0.815923D-02
     31  0.000000D+00 -0.645577D-02 -0.147894D-01 -0.564668D-01  0.000000D+00
     32  0.000000D+00 -0.199232D-05 -0.131983D-02 -0.311129D-02  0.000000D+00
     33  0.000000D+00 -0.226235D-02 -0.865312D-02 -0.902119D-02  0.000000D+00
     34  0.000000D+00  0.000000D+00 -0.102979D-02  0.000000D+00  0.000000D+00
     35  0.000000D+00 -0.389214D-03 -0.774811D-02  0.000000D+00  0.000000D+00
     36  0.000000D+00  0.000000D+00  0.000000D+00 -0.340319D-02  0.000000D+00
     37 -0.577936D-04  0.000000D+00  0.000000D+00  0.000000D+00 -0.340319D-02
     38  0.000000D+00  0.111017D-02  0.818628D-02  0.000000D+00  0.000000D+00
     39  0.000000D+00 -0.818628D-02 -0.151167D-01  0.000000D+00  0.000000D+00
     40  0.000000D+00  0.000000D+00  0.000000D+00 -0.426603D-02  0.000000D+00
     41 -0.340319D-02  0.000000D+00  0.000000D+00  0.000000D+00 -0.426603D-02
     42  0.000000D+00  0.134810D-01  0.102618D-01  0.000000D+00  0.000000D+00
     43  0.000000D+00  0.000000D+00 -0.213072D-03  0.000000D+00  0.000000D+00
     44  0.000000D+00 -0.671071D-03 -0.359819D-02  0.000000D+00  0.000000D+00
     45  0.000000D+00 -0.131119D-04 -0.284498D-02  0.344749D-02  0.000000D+00
     46  0.000000D+00 -0.372066D-02 -0.153197D-01  0.109769D-01  0.000000D+00
     47  0.000000D+00 -0.439127D-02 -0.499694D-02 -0.543680D-02  0.000000D+00
     48 -0.737211D-03  0.000000D+00  0.000000D+00  0.000000D+00 -0.498890D-02
     49  0.000000D+00  0.720959D-02  0.904287D-02  0.810566D-03  0.000000D+00
     50  0.000000D+00 -0.904287D-02 -0.147838D-01 -0.817238D-02  0.000000D+00
     51  0.000000D+00  0.810566D-03  0.817238D-02 -0.230434D-01  0.000000D+00
     52 -0.498890D-02  0.000000D+00  0.000000D+00  0.000000D+00  0.815923D-02
     53  0.000000D+00 -0.645577D-02 -0.147894D-01  0.564668D-01  0.000000D+00
     54  0.000000D+00 -0.199232D-05 -0.131983D-02  0.311129D-02  0.000000D+00
     55  0.000000D+00 -0.226235D-02 -0.865312D-02  0.902119D-02  0.000000D+00
     56  0.000000D+00 -0.213091D-01  0.342811D-02 -0.424222D-01  0.000000D+00
     57  0.000000D+00 -0.291627D-02  0.364901D-01 -0.183475D+00  0.000000D+00
     58  0.000000D+00  0.663840D-01  0.789926D-01 -0.138979D+00  0.000000D+00
     59 -0.125886D-01  0.000000D+00  0.000000D+00  0.000000D+00  0.788655D-01
     60  0.000000D+00 -0.518829D-01 -0.467576D-01  0.128948D+00  0.000000D+00
     61  0.000000D+00  0.467576D-01  0.818410D-01 -0.181620D+00  0.000000D+00
     62  0.000000D+00  0.128948D+00  0.181620D+00 -0.100392D+00  0.000000D+00
     63  0.788655D-01  0.000000D+00  0.000000D+00  0.000000D+00  0.181327D+00
     64  0.000000D+00  0.253843D-02 -0.107505D+00  0.166756D+00  0.000000D+00
     65  0.000000D+00 -0.111791D-02 -0.172344D-01  0.667734D-02  0.000000D+00
     66  0.000000D+00  0.428488D-04 -0.284667D-02 -0.632330D-01  0.000000D+00
               11            12            13            14            15 
     11  0.489643D+00
     12  0.251107D-01  0.165790D+02
     13  0.108603D+00 -0.143503D+01  0.135737D+01
     14 -0.128948D+00  0.000000D+00  0.000000D+00  0.258667D+01
     15  0.000000D+00  0.000000D+00  0.000000D+00  0.000000D+00  0.258667D+01
     16  0.253843D-02  0.000000D+00  0.000000D+00  0.000000D+00  0.000000D+00
     17  0.107505D+00  0.102750D+00  0.346412D+00  0.000000D+00  0.000000D+00
     18 -0.166756D+00  0.000000D+00  0.000000D+00  0.417510D+00  0.000000D+00
     19  0.000000D+00  0.000000D+00  0.000000D+00  0.000000D+00  0.417510D+00
     20  0.826203D-01  0.000000D+00  0.000000D+00  0.000000D+00  0.000000D+00
     21 -0.587276D-03 -0.444886D-01 -0.128527D-01  0.147187D+00  0.000000D+00
     22  0.556138D-02  0.218615D-01  0.104752D+00  0.115431D+00  0.000000D+00
     23 -0.623886D-02  0.000000D+00 -0.149227D-01  0.000000D+00  0.000000D+00
     24 -0.198647D-01 -0.149227D-01 -0.656631D-01  0.000000D+00  0.000000D+00
     25 -0.810566D-03  0.000000D+00  0.000000D+00 -0.178484D-01  0.000000D+00
     26  0.000000D+00  0.000000D+00  0.000000D+00  0.000000D+00 -0.178484D-01
     27 -0.645577D-02  0.331989D-01  0.315543D-01  0.000000D+00  0.000000D+00
     28  0.147894D-01  0.926394D-03  0.253164D-01  0.000000D+00  0.000000D+00
     29 -0.564668D-01  0.000000D+00  0.000000D+00  0.654735D-01  0.000000D+00
     30  0.000000D+00  0.000000D+00  0.000000D+00  0.000000D+00  0.654735D-01
     31 -0.940277D-01 -0.404710D-01 -0.187354D+00  0.000000D+00  0.000000D+00
     32 -0.389143D-02 -0.250144D-04 -0.492931D-02 -0.468770D-02  0.000000D+00
     33 -0.112832D-01 -0.447341D-02 -0.177728D-01 -0.581920D-03  0.000000D+00
     34 -0.363452D-02  0.000000D+00 -0.315593D-05  0.724540D-05  0.000000D+00
     35 -0.195994D-01 -0.315593D-05 -0.170425D-02  0.205597D-02  0.000000D+00
     36  0.000000D+00 -0.724540D-05 -0.205597D-02  0.168933D-02  0.000000D+00
     37  0.000000D+00  0.000000D+00  0.000000D+00  0.000000D+00 -0.737211D-03
     38  0.134810D-01  0.131119D-04  0.372066D-02 -0.439127D-02  0.000000D+00
     39 -0.102618D-01 -0.284498D-02 -0.153197D-01  0.499694D-02  0.000000D+00
     40  0.000000D+00 -0.344749D-02 -0.109769D-01 -0.543680D-02  0.000000D+00
     41  0.000000D+00  0.000000D+00  0.000000D+00  0.000000D+00 -0.498890D-02
     42 -0.423668D-01  0.623886D-02  0.198647D-01  0.810566D-03  0.000000D+00
     43 -0.988153D-03  0.000000D+00  0.000000D+00  0.000000D+00  0.000000D+00
     44 -0.848034D-02 -0.183510D-03 -0.202135D-02  0.948936D-03  0.000000D+00
     45 -0.623886D-02  0.000000D+00  0.000000D+00  0.000000D+00  0.000000D+00
     46 -0.198647D-01  0.000000D+00 -0.211983D-03  0.532504D-03  0.000000D+00
     47  0.810566D-03  0.000000D+00 -0.532504D-03  0.122511D-02  0.000000D+00
     48  0.000000D+00  0.000000D+00  0.000000D+00  0.000000D+00 -0.949862D-04
     49 -0.645577D-02  0.000000D+00  0.324230D-03 -0.803777D-03  0.000000D+00
     50  0.147894D-01 -0.126690D-02 -0.897724D-02  0.765869D-02  0.000000D+00
     51  0.564668D-01 -0.363725D-02 -0.181436D-01  0.796796D-02  0.000000D+00
     52  0.000000D+00  0.000000D+00  0.000000D+00  0.000000D+00 -0.382319D-02
     53 -0.940277D-01  0.221465D-02  0.110473D-01 -0.717939D-02  0.000000D+00
     54 -0.389143D-02  0.000000D+00  0.000000D+00  0.000000D+00  0.000000D+00
     55 -0.112832D-01 -0.334919D-04 -0.530181D-03  0.723383D-03  0.000000D+00
     56  0.251107D-01  0.000000D+00 -0.763449D-05  0.348563D-04  0.000000D+00
     57  0.108603D+00 -0.763449D-05 -0.269666D-02  0.641981D-02  0.000000D+00
     58  0.128948D+00 -0.348563D-04 -0.641981D-02  0.137536D-01  0.000000D+00
     59  0.000000D+00  0.000000D+00  0.000000D+00  0.000000D+00 -0.115425D-02
     60  0.253843D-02  0.000000D+00  0.000000D+00  0.000000D+00  0.000000D+00
     61  0.107505D+00 -0.334341D-02 -0.167815D-01  0.955525D-02  0.000000D+00
     62  0.166756D+00 -0.755687D-02 -0.202238D-01 -0.163945D-01  0.000000D+00
     63  0.000000D+00  0.000000D+00  0.000000D+00  0.000000D+00 -0.476994D-02
     64  0.826203D-01  0.000000D+00  0.000000D+00  0.000000D+00  0.000000D+00
     65 -0.587276D-03  0.000000D+00 -0.106855D-05  0.404756D-05  0.000000D+00
     66  0.556138D-02 -0.242210D-03 -0.250607D-02  0.325159D-02  0.000000D+00
               16            17            18            19            20 
     16  0.258667D+01
     17  0.000000D+00  0.293786D+00
     18  0.000000D+00  0.000000D+00  0.489643D+00
     19  0.000000D+00  0.000000D+00  0.000000D+00  0.489643D+00
     20  0.417510D+00  0.000000D+00  0.000000D+00  0.000000D+00  0.489643D+00
     21 -0.804794D-01  0.903635D-01  0.258743D+00  0.000000D+00 -0.141476D+00
     22 -0.631156D-01  0.140262D+00  0.205573D+00  0.000000D+00 -0.112404D+00
     23 -0.331989D-01  0.926394D-03  0.000000D+00  0.000000D+00  0.404710D-01
     24 -0.315543D-01  0.253164D-01  0.000000D+00  0.000000D+00  0.187354D+00
     25  0.000000D+00  0.000000D+00  0.654735D-01  0.000000D+00  0.000000D+00
     26  0.000000D+00  0.000000D+00  0.000000D+00  0.654735D-01  0.000000D+00
     27 -0.938723D-01 -0.798595D-01  0.000000D+00  0.000000D+00 -0.211783D+00
     28  0.798595D-01  0.703861D-01  0.000000D+00  0.000000D+00  0.199390D+00
     29  0.000000D+00  0.000000D+00  0.163472D+00  0.000000D+00  0.000000D+00
     30  0.000000D+00  0.000000D+00  0.000000D+00  0.163472D+00  0.000000D+00
     31 -0.211783D+00 -0.199390D+00  0.000000D+00  0.000000D+00 -0.218215D+00
     32 -0.975278D-02 -0.169654D-01 -0.435554D-02  0.000000D+00 -0.906170D-02
     33 -0.121069D-02 -0.477635D-02  0.248537D-01  0.000000D+00  0.517083D-01
     34 -0.131119D-04 -0.284498D-02  0.344749D-02  0.000000D+00 -0.623886D-02
     35 -0.372066D-02 -0.153197D-01  0.109769D-01  0.000000D+00 -0.198647D-01
     36 -0.439127D-02 -0.499694D-02 -0.543680D-02  0.000000D+00  0.810566D-03
     37  0.000000D+00  0.000000D+00  0.000000D+00 -0.498890D-02  0.000000D+00
     38  0.720959D-02  0.904287D-02  0.810566D-03  0.000000D+00 -0.645577D-02
     39 -0.904287D-02 -0.147838D-01 -0.817238D-02  0.000000D+00  0.147894D-01
     40  0.810566D-03  0.817238D-02 -0.230434D-01  0.000000D+00  0.564668D-01
     41  0.000000D+00  0.000000D+00  0.000000D+00  0.815923D-02  0.000000D+00
     42 -0.645577D-02 -0.147894D-01  0.564668D-01  0.000000D+00 -0.940277D-01
     43 -0.196328D-05 -0.122933D-02  0.162155D-02  0.000000D+00 -0.439942D-02
     44 -0.257455D-02 -0.838422D-02  0.493867D-02  0.000000D+00 -0.133991D-01
     45  0.000000D+00 -0.126690D-02  0.363725D-02  0.000000D+00 -0.221465D-02
     46 -0.324230D-03 -0.897724D-02  0.181436D-01  0.000000D+00 -0.110473D-01
     47 -0.803777D-03 -0.765869D-02  0.796796D-02  0.000000D+00 -0.717939D-02
     48  0.000000D+00  0.000000D+00  0.000000D+00 -0.382319D-02  0.000000D+00
     49  0.394417D-03  0.466322D-02 -0.717939D-02  0.000000D+00  0.548196D-03
     50 -0.466322D-02 -0.156499D-01  0.627631D-02  0.000000D+00 -0.382151D-02
     51 -0.717939D-02 -0.627631D-02 -0.407890D-01  0.000000D+00  0.229279D-01
     52  0.000000D+00  0.000000D+00  0.000000D+00 -0.313310D-02  0.000000D+00
     53  0.548196D-03  0.382151D-02  0.229279D-01  0.000000D+00 -0.170935D-01
     54  0.000000D+00 -0.279602D-03  0.108875D-02  0.000000D+00 -0.643706D-03
     55 -0.427688D-03 -0.412770D-02  0.807075D-02  0.000000D+00 -0.477170D-02
     56  0.000000D+00 -0.334341D-02  0.755687D-02  0.000000D+00  0.000000D+00
     57  0.000000D+00 -0.167815D-01  0.202238D-01  0.000000D+00  0.000000D+00
     58  0.000000D+00 -0.955525D-02 -0.163945D-01  0.000000D+00  0.000000D+00
     59  0.000000D+00  0.000000D+00  0.000000D+00 -0.476994D-02  0.000000D+00
     60 -0.115425D-02  0.000000D+00  0.000000D+00  0.000000D+00 -0.476994D-02
     61  0.000000D+00 -0.133379D-01 -0.260380D-01  0.000000D+00  0.000000D+00
     62  0.000000D+00  0.260380D-01 -0.144845D+00  0.000000D+00  0.000000D+00
     63  0.000000D+00  0.000000D+00  0.000000D+00  0.129981D-01  0.000000D+00
     64 -0.476994D-02  0.000000D+00  0.000000D+00  0.000000D+00  0.129981D-01
     65  0.000000D+00 -0.156308D-02  0.568283D-02  0.000000D+00  0.883020D-03
     66  0.505244D-03 -0.931655D-02  0.145960D-01  0.000000D+00  0.226799D-02
               21            22            23            24            25 
     21  0.154940D+01
     22  0.293151D+00  0.274787D+00
     23 -0.250144D-04 -0.447341D-02  0.165790D+02
     24 -0.492931D-02 -0.177728D-01 -0.143503D+01  0.135737D+01
     25 -0.468770D-02 -0.581920D-03  0.000000D+00  0.000000D+00  0.258667D+01
     26  0.000000D+00  0.000000D+00  0.000000D+00  0.000000D+00  0.000000D+00
     27  0.975278D-02  0.121069D-02  0.000000D+00  0.000000D+00  0.000000D+00
     28 -0.169654D-01 -0.477635D-02  0.102750D+00  0.346412D+00  0.000000D+00
     29 -0.435554D-02  0.248537D-01  0.000000D+00  0.000000D+00  0.417510D+00
     30  0.000000D+00  0.000000D+00  0.000000D+00  0.000000D+00  0.000000D+00
     31  0.906170D-02 -0.517083D-01  0.000000D+00  0.000000D+00  0.000000D+00
     32 -0.530257D-03 -0.125263D-01 -0.444886D-01 -0.128527D-01  0.147187D+00
     33 -0.125263D-01 -0.128809D-01  0.218615D-01  0.104752D+00  0.115431D+00
     34  0.000000D+00 -0.199194D-03  0.000000D+00 -0.207825D-01  0.359998D-01
     35  0.000000D+00 -0.215419D-02 -0.207825D-01 -0.636650D-01  0.492677D-02
     36 -0.159290D-05 -0.180880D-02 -0.359998D-01 -0.492677D-02 -0.124738D+00
     37  0.000000D+00  0.000000D+00  0.000000D+00  0.000000D+00  0.000000D+00
     38  0.199232D-05  0.226235D-02  0.213091D-01  0.291627D-02  0.663840D-01
     39 -0.131983D-02 -0.865312D-02  0.342811D-02  0.364901D-01 -0.789926D-01
     40 -0.311129D-02 -0.902119D-02  0.424222D-01  0.183475D+00 -0.138979D+00
     41  0.000000D+00  0.000000D+00  0.000000D+00  0.000000D+00  0.000000D+00
     42  0.389143D-02  0.112832D-01 -0.251107D-01 -0.108603D+00  0.128948D+00
     43  0.000000D+00 -0.671232D-04 -0.378118D-04 -0.603572D-02  0.716597D-02
     44 -0.671232D-04 -0.180712D-02 -0.464538D-02 -0.176723D-01 -0.340753D-03
     45  0.000000D+00 -0.334919D-04  0.000000D+00 -0.763449D-05  0.348563D-04
     46  0.000000D+00 -0.530181D-03 -0.763449D-05 -0.269666D-02  0.641981D-02
     47  0.000000D+00 -0.723383D-03 -0.348563D-04 -0.641981D-02  0.137536D-01
     48  0.000000D+00  0.000000D+00  0.000000D+00  0.000000D+00  0.000000D+00
     49  0.000000D+00  0.427688D-03  0.000000D+00  0.000000D+00  0.000000D+00
     50 -0.279602D-03 -0.412770D-02 -0.334341D-02 -0.167815D-01  0.955525D-02
     51 -0.108875D-02 -0.807075D-02 -0.755687D-02 -0.202238D-01 -0.163945D-01
     52  0.000000D+00  0.000000D+00  0.000000D+00  0.000000D+00  0.000000D+00
     53  0.643706D-03  0.477170D-02  0.000000D+00  0.000000D+00  0.000000D+00
     54  0.000000D+00 -0.391478D-05  0.000000D+00 -0.106855D-05  0.404756D-05
     55 -0.391478D-05 -0.372763D-03 -0.242210D-03 -0.250607D-02  0.325159D-02
     56  0.000000D+00 -0.242210D-03  0.000000D+00  0.000000D+00  0.000000D+00
     57 -0.106855D-05 -0.250607D-02  0.000000D+00 -0.211983D-03  0.532504D-03
     58 -0.404756D-05 -0.325159D-02  0.000000D+00 -0.532504D-03  0.122511D-02
     59  0.000000D+00  0.000000D+00  0.000000D+00  0.000000D+00  0.000000D+00
     60  0.000000D+00  0.505244D-03  0.000000D+00 -0.324230D-03  0.803777D-03
     61 -0.156308D-02 -0.931655D-02 -0.126690D-02 -0.897724D-02  0.765869D-02
     62 -0.568283D-02 -0.145960D-01 -0.363725D-02 -0.181436D-01  0.796796D-02
     63  0.000000D+00  0.000000D+00  0.000000D+00  0.000000D+00  0.000000D+00
     64  0.883020D-03  0.226799D-02 -0.221465D-02 -0.110473D-01  0.717939D-02
     65  0.000000D+00 -0.795348D-04  0.000000D+00  0.000000D+00  0.000000D+00
     66 -0.795348D-04 -0.198075D-02 -0.334919D-04 -0.530181D-03  0.723383D-03
               26            27            28            29            30 
     26  0.258667D+01
     27  0.000000D+00  0.258667D+01
     28  0.000000D+00  0.000000D+00  0.293786D+00
     29  0.000000D+00  0.000000D+00  0.000000D+00  0.489643D+00
     30  0.417510D+00  0.000000D+00  0.000000D+00  0.000000D+00  0.489643D+00
     31  0.000000D+00  0.417510D+00  0.000000D+00  0.000000D+00  0.000000D+00
     32  0.000000D+00  0.804794D-01  0.903635D-01  0.258743D+00  0.000000D+00
     33  0.000000D+00  0.631156D-01  0.140262D+00  0.205573D+00  0.000000D+00
     34  0.000000D+00 -0.213091D-01  0.342811D-02 -0.424222D-01  0.000000D+00
     35  0.000000D+00 -0.291627D-02  0.364901D-01 -0.183475D+00  0.000000D+00
     36  0.000000D+00  0.663840D-01  0.789926D-01 -0.138979D+00  0.000000D+00
     37 -0.125886D-01  0.000000D+00  0.000000D+00  0.000000D+00  0.788655D-01
     38  0.000000D+00 -0.518829D-01 -0.467576D-01  0.128948D+00  0.000000D+00
     39  0.000000D+00  0.467576D-01  0.818410D-01 -0.181620D+00  0.000000D+00
[...]
     7  C   -0.000206  -0.005791  -0.083729   0.002484   0.421900  -0.030194
     8  H    0.000001  -0.000206   0.002538  -0.000021  -0.030909  -0.002500
     9  C    0.002538  -0.083729  -0.010778  -0.000138  -0.088054   0.003057
    10  H   -0.000021   0.002484  -0.000138   0.000001   0.003057  -0.000028
    11  C   -0.030909   0.421900  -0.088054   0.003057  -0.010778  -0.000138
    12  H   -0.002500  -0.030194   0.003057  -0.000028  -0.000138   0.000001
              7          8          9         10         11         12
     1  H   -0.000206   0.000001   0.002538  -0.000021  -0.030909  -0.002500
     2  C   -0.005791  -0.000206  -0.083729   0.002484   0.421900  -0.030194
     3  C   -0.083729   0.002538  -0.010778  -0.000138  -0.088054   0.003057
     4  H    0.002484  -0.000021  -0.000138   0.000001   0.003057  -0.000028
     5  C    0.421900  -0.030909  -0.088054   0.003057  -0.010778  -0.000138
     6  H   -0.030194  -0.002500   0.003057  -0.000028  -0.000138   0.000001
     7  C    5.166564   0.385614   0.421900  -0.030194  -0.083729   0.002484
     8  H    0.385614   0.385160  -0.030909  -0.002500   0.002538  -0.000021
     9  C    0.421900  -0.030909   5.212843   0.376399   0.344967  -0.031615
    10  H   -0.030194  -0.002500   0.376399   0.380141  -0.031615  -0.002010
    11  C   -0.083729   0.002538   0.344967  -0.031615   5.212843   0.376399
    12  H    0.002484  -0.000021  -0.031615  -0.002010   0.376399   0.380141
 Mulliken atomic charges:
              1
     1  H    0.291214
     2  C   -0.167103
     3  C   -0.116480
     4  H    0.304424
     5  C   -0.116480
     6  H    0.304424
     7  C   -0.167103
     8  H    0.291214
     9  C   -0.116480
    10  H    0.304424
    11  C   -0.116480
    12  H    0.304424
 Sum of Mulliken atomic charges =   1.00000
 Mulliken charges with hydrogens summed into heavy atoms:
              1
     2  C    0.124112
     3  C    0.187944
     5  C    0.187944
     7  C    0.124112
     9  C    0.187944
    11  C    0.187944
 Sum of Mulliken charges with hydrogens summed into heavy atoms =   1.00000
          Atomic-Atomic Spin Densities.
              1          2          3          4          5          6
     1  H    0.003818   0.001873  -0.000883   0.000033   0.000064   0.000001
     2  C    0.001873  -0.137207  -0.007253   0.000442  -0.002800  -0.000019
     3  C   -0.000883  -0.007253   0.332598  -0.002470   0.036123  -0.000818
     4  H    0.000033   0.000442  -0.002470  -0.012983  -0.000818   0.000061
     5  C    0.000064  -0.002800   0.036123  -0.000818   0.332598  -0.002470
     6  H    0.000001  -0.000019  -0.000818   0.000061  -0.002470  -0.012983
     7  C   -0.000009   0.003470  -0.002800  -0.000019  -0.007253   0.000442
     8  H    0.000000  -0.000009   0.000064   0.000001  -0.000883   0.000033
     9  C    0.000064  -0.002800  -0.006258  -0.000015  -0.009012   0.000001
    10  H    0.000001  -0.000019  -0.000015   0.000000   0.000001   0.000002
    11  C   -0.000883  -0.007253  -0.009012   0.000001  -0.006258  -0.000015
    12  H    0.000033   0.000442   0.000001   0.000002  -0.000015   0.000000
              7          8          9         10         11         12
     1  H   -0.000009   0.000000   0.000064   0.000001  -0.000883   0.000033
     2  C    0.003470  -0.000009  -0.002800  -0.000019  -0.007253   0.000442
     3  C   -0.002800   0.000064  -0.006258  -0.000015  -0.009012   0.000001
     4  H   -0.000019   0.000001  -0.000015   0.000000   0.000001   0.000002
     5  C   -0.007253  -0.000883  -0.009012   0.000001  -0.006258  -0.000015
     6  H    0.000442   0.000033   0.000001   0.000002  -0.000015   0.000000
     7  C   -0.137207   0.001873  -0.007253   0.000442  -0.002800  -0.000019
     8  H    0.001873   0.003818  -0.000883   0.000033   0.000064   0.000001
     9  C   -0.007253  -0.000883   0.332598  -0.002470   0.036123  -0.000818
    10  H    0.000442   0.000033  -0.002470  -0.012983  -0.000818   0.000061
    11  C   -0.002800   0.000064   0.036123  -0.000818   0.332598  -0.002470
    12  H   -0.000019   0.000001  -0.000818   0.000061  -0.002470  -0.012983
 Mulliken atomic spin densities:
              1
     1  H    0.004112
     2  C   -0.151134
     3  C    0.339276
     4  H   -0.015765
     5  C    0.339276
     6  H   -0.015765
     7  C   -0.151134
     8  H    0.004112
     9  C    0.339276
    10  H   -0.015765
    11  C    0.339276
    12  H   -0.015765
 Sum of Mulliken atomic spin densities =   1.00000
 N-N= 2.012257769748D+02 E-N=-1.382698348657D+03  KE= 3.422210745314D+02
 Orbital energies and kinetic energies (alpha):
                                 1                 2
   1         O               -10.394296         15.809851
   2         O               -10.394260         15.800406
   3         O               -10.393205         15.806126
   4         O               -10.392866         15.807091
   5         O               -10.356699         15.809375
   6         O               -10.356524         15.805079
   7         O                -1.102032          1.472637
   8         O                -0.990469          1.610017
   9         O                -0.990130          1.650394
  10         O                -0.848372          1.539561
  11         O                -0.836901          1.488460
  12         O                -0.755922          0.977022
  13         O                -0.694741          1.462295
  14         O                -0.689060          1.358577
  15         O                -0.657782          1.205878
  16         O                -0.656102          1.230262
  17         O                -0.611574          0.965867
  18         O                -0.584863          1.419359
  19         O                -0.573165          1.377274
  20         O                -0.504989          1.160697
  21         O                -0.492642          1.145712
  22         V                -0.265372          1.454287
  23         V                -0.222551          1.400484
  24         V                -0.087985          0.981181
  25         V                -0.086836          1.746766
  26         V                -0.030859          1.080107
  27         V                -0.028987          1.089208
  28         V                -0.015298          1.825328
  29         V                 0.011532          1.621526
  30         V                 0.013988          1.560536
  31         V                 0.077915          1.560799
  32         V                 0.087703          1.771942
  33         V                 0.109404          1.604235
  34         V                 0.114527          1.714689
  35         V                 0.316830          3.055769
  36         V                 0.330024          2.247752
  37         V                 0.453073          2.023525
  38         V                 0.454225          2.467122
  39         V                 0.456367          1.948637
  40         V                 0.493814          2.523208
  41         V                 0.520801          2.730748
  42         V                 0.541482          2.540158
  43         V                 0.557384          2.524062
  44         V                 0.560848          2.685416
  45         V                 0.585348          2.788481
  46         V                 0.589241          2.520227
  47         V                 0.608587          2.595008
  48         V                 0.657494          2.385189
  49         V                 0.679962          2.500123
  50         V                 0.751259          3.138488
  51         V                 0.789698          2.956689
  52         V                 0.813389          3.046413
  53         V                 0.875768          3.062583
  54         V                 0.898328          3.092466
  55         V                 0.910104          3.038946
  56         V                 1.071398          2.548305
  57         V                 1.080950          2.586525
  58         V                 1.112136          3.115068
  59         V                 1.234351          2.595651
  60         V                 1.234476          2.663236
  61         V                 1.252031          2.686353
  62         V                 1.272498          3.123909
  63         V                 1.313329          3.246920
  64         V                 1.630972          3.279396
  65         V                 1.637837          3.369309
  66         V                 2.217136          3.573996
 Orbital energies and kinetic energies (beta):
                                 1                 2
   1         O               -10.390027         15.814530
   2         O               -10.389981         15.804948
   3         O               -10.388907         15.810615
   4         O               -10.388582         15.811423
   5         O               -10.358269         15.807881
   6         O               -10.358091         15.803713
   7         O                -1.091227          1.469350
   8         O                -0.987221          1.648289
   9         O                -0.970792          1.596449
  10         O                -0.838516          1.519545
  11         O                -0.831190          1.483758
  12         O                -0.753285          0.971706
  13         O                -0.690176          1.463260
  14         O                -0.684461          1.339357
  15         O                -0.657708          1.208950
  16         O                -0.650903          1.232504
  17         O                -0.582669          1.412398
  18         O                -0.581028          0.942811
  19         O                -0.570092          1.383241
  20         O                -0.485820          1.134840
  21         V                -0.413184          1.119401
  22         V                -0.223179          1.406643
  23         V                -0.211477          1.397552
  24         V                -0.086124          0.984885
  25         V                -0.064657          1.725613
  26         V                -0.028533          1.088709
  27         V                -0.028240          1.085892
  28         V                -0.004623          1.773896
  29         V                 0.013186          1.606734
  30         V                 0.019465          1.515578
  31         V                 0.082941          1.606412
  32         V                 0.092119          1.777625
  33         V                 0.111093          1.617443
  34         V                 0.118065          1.711676
  35         V                 0.325362          3.097550
  36         V                 0.333591          2.242328
  37         V                 0.454605          2.015905
  38         V                 0.458872          1.947144
  39         V                 0.471546          2.491229
  40         V                 0.496160          2.543775
  41         V                 0.524657          2.737710
  42         V                 0.562130          2.536440
  43         V                 0.563465          2.690425
  44         V                 0.568260          2.581454
  45         V                 0.588078          2.797273
  46         V                 0.611628          2.567870
  47         V                 0.612194          2.596890
  48         V                 0.659467          2.390312
  49         V                 0.690407          2.519769
  50         V                 0.753079          3.145617
  51         V                 0.791944          2.965762
  52         V                 0.813730          3.047254
  53         V                 0.877442          3.069583
  54         V                 0.900834          3.093512
  55         V                 0.910604          3.042375
  56         V                 1.072812          2.547315
  57         V                 1.085688          2.587744
  58         V                 1.118386          3.114337
  59         V                 1.237509          2.588970
  60         V                 1.240037          2.660986
  61         V                 1.253869          2.686984
  62         V                 1.273627          3.132179
  63         V                 1.329821          3.240455
  64         V                 1.642896          3.278684
  65         V                 1.643810          3.366356
  66         V                 2.226066          3.570890
 Total kinetic energy from orbitals= 2.285615065500D+02
                          Isotropic Fermi Contact Couplings
        Atom                 a.u.       MegaHertz       Gauss      10(-4) cm-1
     1  H(1)               0.00111       4.97600       1.77556       1.65981
     2  C(13)             -0.02331     -26.20709      -9.35134      -8.74174
     3  C(13)              0.03700      41.59311      14.84145      13.87397
     4  H(1)              -0.00479     -21.40709      -7.63858      -7.14064
     5  C(13)              0.03700      41.59311      14.84145      13.87397
     6  H(1)              -0.00479     -21.40709      -7.63858      -7.14064
     7  C(13)             -0.02331     -26.20709      -9.35134      -8.74174
     8  H(1)               0.00111       4.97600       1.77556       1.65981
     9  C(13)              0.03700      41.59311      14.84145      13.87397
    10  H(1)              -0.00479     -21.40709      -7.63858      -7.14064
    11  C(13)              0.03700      41.59311      14.84145      13.87397
    12  H(1)              -0.00479     -21.40709      -7.63858      -7.14064
 --------------------------------------------------------
       Center         ----  Spin Dipole Couplings  ----
                      3XX-RR        3YY-RR        3ZZ-RR
 --------------------------------------------------------
     1   Atom        0.004496     -0.005420      0.000924
     2   Atom        0.050468     -0.093765      0.043297
     3   Atom       -0.160932      0.315621     -0.154689
     4   Atom        0.012191     -0.007207     -0.004984
     5   Atom       -0.160932      0.315621     -0.154689
     6   Atom        0.012191     -0.007207     -0.004984
     7   Atom        0.050468     -0.093765      0.043297
     8   Atom        0.004496     -0.005420      0.000924
     9   Atom       -0.160932      0.315621     -0.154689
    10   Atom        0.012191     -0.007207     -0.004984
    11   Atom       -0.160932      0.315621     -0.154689
    12   Atom        0.012191     -0.007207     -0.004984
 --------------------------------------------------------
                        XY            XZ            YZ
 --------------------------------------------------------
     1   Atom        0.000000      0.000000      0.000000
     2   Atom        0.000000      0.000000      0.000000
     3   Atom        0.000000     -0.004439      0.000000
     4   Atom        0.000000     -0.026569      0.000000
     5   Atom        0.000000      0.004439      0.000000
     6   Atom        0.000000      0.026569      0.000000
     7   Atom        0.000000      0.000000      0.000000
     8   Atom        0.000000      0.000000      0.000000
     9   Atom        0.000000     -0.004439      0.000000
    10   Atom        0.000000     -0.026569      0.000000
    11   Atom        0.000000      0.004439      0.000000
    12   Atom        0.000000      0.026569      0.000000
 --------------------------------------------------------


 ---------------------------------------------------------------------------------
              Anisotropic Spin Dipole Couplings in Principal Axis System
 ---------------------------------------------------------------------------------

       Atom             a.u.   MegaHertz   Gauss  10(-4) cm-1        Axes

              Baa    -0.0054    -2.892    -1.032    -0.965  0.0000  1.0000  0.0000
     1 H(1)   Bbb     0.0009     0.493     0.176     0.164  0.0000  0.0000  1.0000
              Bcc     0.0045     2.399     0.856     0.800  1.0000  0.0000  0.0000
 
              Baa    -0.0938   -12.582    -4.490    -4.197  0.0000  1.0000  0.0000
     2 C(13)  Bbb     0.0433     5.810     2.073     1.938  0.0000  0.0000  1.0000
              Bcc     0.0505     6.772     2.417     2.259  1.0000  0.0000  0.0000
 
              Baa    -0.1632   -21.905    -7.816    -7.307  0.8875  0.0000  0.4609
     3 C(13)  Bbb    -0.1524   -20.448    -7.297    -6.821 -0.4609  0.0000  0.8875
              Bcc     0.3156    42.353    15.113    14.128  0.0000  1.0000  0.0000
 
              Baa    -0.0243   -12.975    -4.630    -4.328  0.5884  0.0000  0.8086
     4 H(1)   Bbb    -0.0072    -3.845    -1.372    -1.283  0.0000  1.0000  0.0000
              Bcc     0.0315    16.821     6.002     5.611  0.8086  0.0000 -0.5884
 
              Baa    -0.1632   -21.905    -7.816    -7.307  0.8875  0.0000 -0.4609
     5 C(13)  Bbb    -0.1524   -20.448    -7.297    -6.821  0.4609  0.0000  0.8875
              Bcc     0.3156    42.353    15.113    14.128  0.0000  1.0000  0.0000
 
              Baa    -0.0243   -12.975    -4.630    -4.328 -0.5884  0.0000  0.8086
     6 H(1)   Bbb    -0.0072    -3.845    -1.372    -1.283  0.0000  1.0000  0.0000
              Bcc     0.0315    16.821     6.002     5.611  0.8086  0.0000  0.5884
 
              Baa    -0.0938   -12.582    -4.490    -4.197  0.0000  1.0000  0.0000
     7 C(13)  Bbb     0.0433     5.810     2.073     1.938  0.0000  0.0000  1.0000
              Bcc     0.0505     6.772     2.417     2.259  1.0000  0.0000  0.0000
 
              Baa    -0.0054    -2.892    -1.032    -0.965  0.0000  1.0000  0.0000
     8 H(1)   Bbb     0.0009     0.493     0.176     0.164  0.0000  0.0000  1.0000
              Bcc     0.0045     2.399     0.856     0.800  1.0000  0.0000  0.0000
 
              Baa    -0.1632   -21.905    -7.816    -7.307  0.8875  0.0000  0.4609
     9 C(13)  Bbb    -0.1524   -20.448    -7.297    -6.821 -0.4609  0.0000  0.8875
              Bcc     0.3156    42.353    15.113    14.128  0.0000  1.0000  0.0000
 
              Baa    -0.0243   -12.975    -4.630    -4.328  0.5884  0.0000  0.8086
    10 H(1)   Bbb    -0.0072    -3.845    -1.372    -1.283  0.0000  1.0000  0.0000
              Bcc     0.0315    16.821     6.002     5.611  0.8086  0.0000 -0.5884
 
              Baa    -0.1632   -21.905    -7.816    -7.307  0.8875  0.0000 -0.4609
    11 C(13)  Bbb    -0.1524   -20.448    -7.297    -6.821  0.4609  0.0000  0.8875
              Bcc     0.3156    42.353    15.113    14.128  0.0000  1.0000  0.0000
 
              Baa    -0.0243   -12.975    -4.630    -4.328 -0.5884  0.0000  0.8086
    12 H(1)   Bbb    -0.0072    -3.845    -1.372    -1.283  0.0000  1.0000  0.0000
              Bcc     0.0315    16.821     6.002     5.611  0.8086  0.0000  0.5884
 

 ---------------------------------------------------------------------------------


 Test job not archived.
 1\1\GINC-R2I1N2\SP\UB3LYP\3-21G\C6H6(1+,2)\NOBOYLE\04-Nov-2012\0\\# UB
 3LYP/3-21G nosym pop=full iop(3/33=1,3/36=-1) guess=read geom=allcheck
 \\Benzene\\1,2\H,0,-0.0000000224,0.0000000001,-0.0343178031\C,0,0.0000
 000141,-0.0000000002,1.0476550085\C,0,1.1976526832,0.0000000002,1.7565
 73808\H,0,2.1485779606,-0.0000000001,1.2366238236\C,0,1.1976526832,-0.
 0000000003,3.215026192\H,0,2.1485779606,0.0000000001,3.7349761764\C,0,
 0.0000000141,0.0000000002,3.9239449915\H,0,-0.0000000224,-0.0000000001
 ,5.0059178031\C,0,-1.1976526542,-0.0000000003,3.2150261947\H,0,-2.1485
 779813,0.0000000001,3.7349761715\C,0,-1.1976526542,0.0000000002,1.7565
 738053\H,0,-2.1485779813,-0.0000000001,1.2366238285\\Version=EM64L-G09
 RevB.01\HF=-230.6432718\S2=0.764246\S2-1=0.\S2A=0.750121\RMSD=2.245e-1
 0\PG=C02V [SGV(C6H6)]\\@


 At the touch of love, everyone becomves a poet.
                                -- Plato
 Job cpu time:  0 days  0 hours  0 minutes 25.6 seconds.
 File lengths (MBytes):  RWF=      9 Int=      0 D2E=      0 Chk=      2 Scr=      1
 Normal termination of Gaussian 09 at Sun Nov  4 10:58:28 2012.
